 Entering Gaussian System, Link 0=/home/zhangjx/ssd/softwares/g16/g16
 Input=Au.gjf
 Output=Au.log
 Initial command:
 /home/zhangjx/ssd/softwares/g16/l1.exe "/home/zhangjx/ssd/scratch/Gau-845732.inp" -scrdir="/home/zhangjx/ssd/scratch/"
 Entering Link 1 = /home/zhangjx/ssd/softwares/g16/l1.exe PID=    845733.
  
 Copyright (c) 1988,1990,1992,1993,1995,1998,2003,2009,2016,
            Gaussian, Inc.  All Rights Reserved.
  
 This is part of the Gaussian(R) 16 program.  It is based on
 the Gaussian(R) 09 system (copyright 2009, Gaussian, Inc.),
 the Gaussian(R) 03 system (copyright 2003, Gaussian, Inc.),
 the Gaussian(R) 98 system (copyright 1998, Gaussian, Inc.),
 the Gaussian(R) 94 system (copyright 1995, Gaussian, Inc.),
 the Gaussian 92(TM) system (copyright 1992, Gaussian, Inc.),
 the Gaussian 90(TM) system (copyright 1990, Gaussian, Inc.),
 the Gaussian 88(TM) system (copyright 1988, Gaussian, Inc.),
 the Gaussian 86(TM) system (copyright 1986, Carnegie Mellon
 University), and the Gaussian 82(TM) system (copyright 1983,
 Carnegie Mellon University). Gaussian is a federally registered
 trademark of Gaussian, Inc.
  
 This software contains proprietary and confidential information,
 including trade secrets, belonging to Gaussian, Inc.
  
 This software is provided under written license and may be
 used, copied, transmitted, or stored only in accord with that
 written license.
  
 The following legend is applicable only to US Government
 contracts under FAR:
  
                    RESTRICTED RIGHTS LEGEND
  
 Use, reproduction and disclosure by the US Government is
 subject to restrictions as set forth in subparagraphs (a)
 and (c) of the Commercial Computer Software - Restricted
 Rights clause in FAR 52.227-19.
  
 Gaussian, Inc.
 340 Quinnipiac St., Bldg. 40, Wallingford CT 06492
  
  
 ---------------------------------------------------------------
 Warning -- This program may not be used in any manner that
 competes with the business of Gaussian, Inc. or will provide
 assistance to any competitor of Gaussian, Inc.  The licensee
 of this program is prohibited from giving any competitor of
 Gaussian, Inc. access to this program.  By using this program,
 the user acknowledges that Gaussian, Inc. is engaged in the
 business of creating and licensing software in the field of
 computational chemistry and represents and warrants to the
 licensee that it is not a competitor of Gaussian, Inc. and that
 it will not use this program in any manner prohibited above.
 ---------------------------------------------------------------
  

 Cite this work as:
 Gaussian 16, Revision A.03,
 M. J. Frisch, G. W. Trucks, H. B. Schlegel, G. E. Scuseria, 
 M. A. Robb, J. R. Cheeseman, G. Scalmani, V. Barone, 
 G. A. Petersson, H. Nakatsuji, X. Li, M. Caricato, A. V. Marenich, 
 J. Bloino, B. G. Janesko, R. Gomperts, B. Mennucci, H. P. Hratchian, 
 J. V. Ortiz, A. F. Izmaylov, J. L. Sonnenberg, D. Williams-Young, 
 F. Ding, F. Lipparini, F. Egidi, J. Goings, B. Peng, A. Petrone, 
 T. Henderson, D. Ranasinghe, V. G. Zakrzewski, J. Gao, N. Rega, 
 G. Zheng, W. Liang, M. Hada, M. Ehara, K. Toyota, R. Fukuda, 
 J. Hasegawa, M. Ishida, T. Nakajima, Y. Honda, O. Kitao, H. Nakai, 
 T. Vreven, K. Throssell, J. A. Montgomery, Jr., J. E. Peralta, 
 F. Ogliaro, M. J. Bearpark, J. J. Heyd, E. N. Brothers, K. N. Kudin, 
 V. N. Staroverov, T. A. Keith, R. Kobayashi, J. Normand, 
 K. Raghavachari, A. P. Rendell, J. C. Burant, S. S. Iyengar, 
 J. Tomasi, M. Cossi, J. M. Millam, M. Klene, C. Adamo, R. Cammi, 
 J. W. Ochterski, R. L. Martin, K. Morokuma, O. Farkas, 
 J. B. Foresman, and D. J. Fox, Gaussian, Inc., Wallingford CT, 2016.
 
 ******************************************
 Gaussian 16:  ES64L-G16RevA.03 25-Dec-2016
                16-Aug-2021 
 ******************************************
 %chk=Au.chk
 ----------------------------------------------------
 #p pbe1pbe/def2TZVP pop=nboread int=ultrafine nosymm
 ----------------------------------------------------
 1/38=1,172=1/1;
 2/12=2,15=1,17=6,18=5,40=1/2;
 3/5=44,7=101,11=2,25=1,30=1,74=-13,75=-5/1,2,3;
 4//1;
 5/5=2,38=5/2;
 6/7=2,8=2,9=2,10=2,28=1,40=2/1,7;
 99/5=1,9=1/99;
 Leave Link    1 at Mon Aug 16 12:11:17 2021, MaxMem=           0 cpu:               0.0 elap:               0.0
 (Enter /home/zhangjx/ssd/softwares/g16/l101.exe)
 --
 Au
 --
 Symbolic Z-matrix:
 Charge =  1 Multiplicity = 1
 Au                    0.        0.        0. 
 
 ITRead=  0
 MicOpt= -1
 NAtoms=      1 NQM=        1 NQMF=       0 NMMI=      0 NMMIF=      0
                NMic=       0 NMicF=      0.
                    Isotopes and Nuclear Properties:
 (Nuclear quadrupole moments (NQMom) in fm**2, nuclear magnetic moments (NMagM)
  in nuclear magnetons)

  Atom         1
 IAtWgt=         197
 AtmWgt= 196.9666000
 NucSpn=           3
 AtZEff=  -0.0000000
 NQMom=   54.7000000
 NMagM=    0.1481590
 AtZNuc=  79.0000000
 Leave Link  101 at Mon Aug 16 12:11:17 2021, MaxMem=   104857600 cpu:               0.1 elap:               0.1
 (Enter /home/zhangjx/ssd/softwares/g16/l202.exe)
                          Input orientation:                          
 ---------------------------------------------------------------------
 Center     Atomic      Atomic             Coordinates (Angstroms)
 Number     Number       Type             X           Y           Z
 ---------------------------------------------------------------------
      1         79           0        0.000000    0.000000    0.000000
 ---------------------------------------------------------------------
 Symmetry turned off by external request.
 Stoichiometry    Au(1+)
 Framework group  OH[O(Au)]
 Deg. of freedom     0
 Full point group                 OH      NOp  48
 Leave Link  202 at Mon Aug 16 12:11:17 2021, MaxMem=   104857600 cpu:               0.0 elap:               0.0
 (Enter /home/zhangjx/ssd/softwares/g16/l301.exe)
 Standard basis: def2TZVP (5D, 7F)
 Ernie: Thresh=  0.10000D-02 Tol=  0.10000D-05 Strict=F.
    40 basis functions,    75 primitive gaussians,    46 cartesian basis functions
     9 alpha electrons        9 beta electrons
       nuclear repulsion energy         0.0000000000 Hartrees.
 IExCor= 1009 DFT=T Ex+Corr=PBE1PBE ExCW=0 ScaHFX=  0.250000
 ScaDFX=  0.750000  0.750000  1.000000  1.000000 ScalE2=  1.000000  1.000000
 IRadAn=      5 IRanWt=     -1 IRanGd=            0 ICorTp=0 IEmpDi=  4
 NAtoms=    1 NActive=    1 NUniq=    1 SFac= 1.00D+00 NAtFMM=   60 NAOKFM=F Big=F
 Integral buffers will be    131072 words long.
 Raffenetti 2 integral format.
 Two-electron integral symmetry is turned off.
 Leave Link  301 at Mon Aug 16 12:11:17 2021, MaxMem=   104857600 cpu:               0.0 elap:               0.0
 (Enter /home/zhangjx/ssd/softwares/g16/l302.exe)
 NPDir=0 NMtPBC=     1 NCelOv=     1 NCel=       1 NClECP=     1 NCelD=      1
         NCelK=      1 NCelE2=     1 NClLst=     1 CellRange=     0.0.
 One-electron integrals computed using PRISM.
   1 Symmetry operations used in ECPInt.
 ECPInt:  NShTT=     105 NPrTT=     268 LenC2=     106 LenP2D=     268.
 LDataN:  DoStor=T MaxTD1= 7 Len=  274
 NBasis=    40 RedAO= T EigKep=  1.67D-02  NBF=    40
 NBsUse=    40 1.00D-06 EigRej= -1.00D+00 NBFU=    40
 Precomputing XC quadrature grid using
 IXCGrd= 4 IRadAn=           5 IRanWt=          -1 IRanGd=           0 AccXCQ= 0.00D+00.
 Defaulting to unpruned grid for atomic number  79.
 Generated NRdTot=       0 NPtTot=           0 NUsed=           0 NTot=          32
 NSgBfM=    46    46    46    46    46 MxSgAt=     1 MxSgA2=     1.
 Leave Link  302 at Mon Aug 16 12:11:17 2021, MaxMem=   104857600 cpu:               0.1 elap:               0.1
 (Enter /home/zhangjx/ssd/softwares/g16/l303.exe)
 DipDrv:  MaxL=1.
 Leave Link  303 at Mon Aug 16 12:11:17 2021, MaxMem=   104857600 cpu:               0.0 elap:               0.0
 (Enter /home/zhangjx/ssd/softwares/g16/l401.exe)
 ExpMin= 4.50D-02 ExpMax= 3.00D+01 ExpMxC= 3.00D+01 IAcc=3 IRadAn=         5 AccDes= 0.00D+00
 Harris functional with IExCor= 1009 and IRadAn=       5 diagonalized for initial guess.
 HarFok:  IExCor= 1009 AccDes= 0.00D+00 IRadAn=         5 IDoV= 1 UseB2=F ITyADJ=14
 ICtDFT=  3500011 ScaDFX=  1.000000  1.000000  1.000000  1.000000
 Defaulting to unpruned grid for atomic number  79.
 FoFCou: FMM=F IPFlag=           0 FMFlag=      100000 FMFlg1=           0
         NFxFlg=           0 DoJE=T BraDBF=F KetDBF=T FulRan=T
         wScrn=  0.000000 ICntrl=       500 IOpCl=  0 I1Cent=   200000004 NGrid=           0
         NMat0=    1 NMatS0=      1 NMatT0=    0 NMatD0=    1 NMtDS0=    0 NMtDT0=    0
 Symmetry not used in FoFCou.
 Harris En= -135.380031028367    
 JPrj=0 DoOrth=F DoCkMO=F.
 Leave Link  401 at Mon Aug 16 12:11:18 2021, MaxMem=   104857600 cpu:               0.1 elap:               0.2
 (Enter /home/zhangjx/ssd/softwares/g16/l502.exe)
 Keep R1 ints in memory in canonical form, NReq=2284306.
 FoFCou: FMM=F IPFlag=           0 FMFlag=           0 FMFlg1=           0
         NFxFlg=           0 DoJE=F BraDBF=F KetDBF=F FulRan=T
         wScrn=  0.000000 ICntrl=       600 IOpCl=  0 I1Cent=           0 NGrid=           0
         NMat0=    1 NMatS0=    820 NMatT0=    0 NMatD0=    1 NMtDS0=    0 NMtDT0=    0
 Symmetry not used in FoFCou.
 Two-electron integral symmetry not used.
 Closed shell SCF:
 Using DIIS extrapolation, IDIIS=  1040.
 NGot=   104857600 LenX=   104516055 LenY=   104513498
 Requested convergence on RMS density matrix=1.00D-08 within 128 cycles.
 Requested convergence on MAX density matrix=1.00D-06.
 Requested convergence on             energy=1.00D-06.
 No special actions if energy rises.

 Cycle   1  Pass 1  IDiag  1:
 Defaulting to unpruned grid for atomic number  79.
 E= -134.524268769111    
 DIIS: error= 1.57D-01 at cycle   1 NSaved=   1.
 NSaved= 1 IEnMin= 1 EnMin= -134.524268769111     IErMin= 1 ErrMin= 1.57D-01
 ErrMax= 1.57D-01  0.00D+00 EMaxC= 1.00D-01 BMatC= 7.22D-01 BMatP= 7.22D-01
 IDIUse=3 WtCom= 0.00D+00 WtEn= 1.00D+00
 Coeff-Com:  0.100D+01
 Coeff-En:   0.100D+01
 Coeff:      0.100D+01
 Gap=     0.054 Goal=   None    Shift=    0.000
 GapD=    0.054 DampG=0.500 DampE=0.125 DampFc=0.1250 IDamp=-1.
 Damping current iteration by 1.25D-01
 RMSDP=3.90D-02 MaxDP=7.04D-01              OVMax= 1.00D+00

 Cycle   2  Pass 1  IDiag  1:
 E= -134.708111795302     Delta-E=       -0.183843026191 Rises=F Damp=T
 DIIS: error= 1.13D-01 at cycle   2 NSaved=   2.
 NSaved= 2 IEnMin= 2 EnMin= -134.708111795302     IErMin= 2 ErrMin= 1.13D-01
 ErrMax= 1.13D-01  0.00D+00 EMaxC= 1.00D-01 BMatC= 3.69D-01 BMatP= 7.22D-01
 IDIUse=3 WtCom= 0.00D+00 WtEn= 1.00D+00
 Coeff-Com: -0.249D+01 0.349D+01
 Coeff-En:   0.000D+00 0.100D+01
 Coeff:      0.000D+00 0.100D+01
 Gap=     0.311 Goal=   None    Shift=    0.000
 RMSDP=3.27D-02 MaxDP=5.71D-01 DE=-1.84D-01 OVMax= 3.08D-02

 Cycle   3  Pass 1  IDiag  1:
 E= -134.929638860332     Delta-E=       -0.221527065030 Rises=F Damp=F
 DIIS: error= 1.09D-01 at cycle   3 NSaved=   3.
 NSaved= 3 IEnMin= 3 EnMin= -134.929638860332     IErMin= 3 ErrMin= 1.09D-01
 ErrMax= 1.09D-01  0.00D+00 EMaxC= 1.00D-01 BMatC= 6.58D-01 BMatP= 3.69D-01
 IDIUse=2 WtCom= 0.00D+00 WtEn= 1.00D+00
 EnCoef did   100 forward-backward iterations
 Coeff-En:   0.331D+00 0.432D-02 0.664D+00
 Coeff:      0.331D+00 0.432D-02 0.664D+00
 Gap=     0.110 Goal=   None    Shift=    0.000
 RMSDP=1.44D-02 MaxDP=1.98D-01 DE=-2.22D-01 OVMax= 1.58D-01

 Cycle   4  Pass 1  IDiag  1:
 E= -135.356467957124     Delta-E=       -0.426829096792 Rises=F Damp=F
 DIIS: error= 1.57D-02 at cycle   4 NSaved=   4.
 NSaved= 4 IEnMin= 4 EnMin= -135.356467957124     IErMin= 4 ErrMin= 1.57D-02
 ErrMax= 1.57D-02  0.00D+00 EMaxC= 1.00D-01 BMatC= 1.30D-02 BMatP= 3.69D-01
 IDIUse=3 WtCom= 8.43D-01 WtEn= 1.57D-01
 Coeff-Com: -0.108D+01 0.148D+01 0.410D-01 0.563D+00
 Coeff-En:   0.000D+00 0.000D+00 0.000D+00 0.100D+01
 Coeff:     -0.914D+00 0.125D+01 0.345D-01 0.632D+00
 Gap=     0.187 Goal=   None    Shift=    0.000
 RMSDP=3.21D-03 MaxDP=4.05D-02 DE=-4.27D-01 OVMax= 4.29D-02

 Cycle   5  Pass 1  IDiag  1:
 E= -135.356013610266     Delta-E=        0.000454346858 Rises=F Damp=F
 DIIS: error= 1.65D-02 at cycle   5 NSaved=   5.
 NSaved= 5 IEnMin= 4 EnMin= -135.356467957124     IErMin= 4 ErrMin= 1.57D-02
 ErrMax= 1.65D-02  0.00D+00 EMaxC= 1.00D-01 BMatC= 1.09D-02 BMatP= 1.30D-02
 IDIUse=3 WtCom= 8.35D-01 WtEn= 1.65D-01
 Coeff-Com: -0.577D+00 0.801D+00-0.935D-01 0.103D+00 0.766D+00
 Coeff-En:   0.000D+00 0.000D+00 0.000D+00 0.517D+00 0.483D+00
 Coeff:     -0.482D+00 0.669D+00-0.780D-01 0.172D+00 0.719D+00
 Gap=     0.186 Goal=   None    Shift=    0.000
 RMSDP=8.60D-04 MaxDP=1.10D-02 DE= 4.54D-04 OVMax= 1.27D-02

 Cycle   6  Pass 1  IDiag  1:
 E= -135.361821888987     Delta-E=       -0.005808278721 Rises=F Damp=F
 DIIS: error= 8.11D-03 at cycle   6 NSaved=   6.
 NSaved= 6 IEnMin= 6 EnMin= -135.361821888987     IErMin= 6 ErrMin= 8.11D-03
 ErrMax= 8.11D-03  0.00D+00 EMaxC= 1.00D-01 BMatC= 2.56D-03 BMatP= 1.09D-02
 IDIUse=3 WtCom= 9.19D-01 WtEn= 8.11D-02
 Coeff-Com:  0.133D-01-0.173D-01 0.711D-02-0.547D-01-0.118D+01 0.223D+01
 Coeff-En:   0.000D+00 0.000D+00 0.000D+00 0.114D+00 0.000D+00 0.886D+00
 Coeff:      0.122D-01-0.159D-01 0.653D-02-0.410D-01-0.109D+01 0.212D+01
 Gap=     0.189 Goal=   None    Shift=    0.000
 RMSDP=9.79D-04 MaxDP=1.15D-02 DE=-5.81D-03 OVMax= 1.75D-02

 Cycle   7  Pass 1  IDiag  1:
 E= -135.363652374274     Delta-E=       -0.001830485287 Rises=F Damp=F
 DIIS: error= 5.68D-04 at cycle   7 NSaved=   7.
 NSaved= 7 IEnMin= 7 EnMin= -135.363652374274     IErMin= 7 ErrMin= 5.68D-04
 ErrMax= 5.68D-04  0.00D+00 EMaxC= 1.00D-01 BMatC= 1.33D-05 BMatP= 2.56D-03
 IDIUse=3 WtCom= 9.94D-01 WtEn= 5.68D-03
 Coeff-Com: -0.216D-03 0.200D-03 0.933D-03-0.176D-02-0.841D-02 0.657D-01
 Coeff-Com:  0.943D+00
 Coeff-En:   0.000D+00 0.000D+00 0.000D+00 0.000D+00 0.000D+00 0.000D+00
 Coeff-En:   0.100D+01
 Coeff:     -0.214D-03 0.199D-03 0.928D-03-0.175D-02-0.836D-02 0.654D-01
 Coeff:      0.944D+00
 Gap=     0.190 Goal=   None    Shift=    0.000
 RMSDP=5.70D-05 MaxDP=6.99D-04 DE=-1.83D-03 OVMax= 9.86D-04

 Cycle   8  Pass 1  IDiag  1:
 E= -135.363661456314     Delta-E=       -0.000009082040 Rises=F Damp=F
 DIIS: error= 2.90D-05 at cycle   8 NSaved=   8.
 NSaved= 8 IEnMin= 8 EnMin= -135.363661456314     IErMin= 8 ErrMin= 2.90D-05
 ErrMax= 2.90D-05  0.00D+00 EMaxC= 1.00D-01 BMatC= 2.20D-08 BMatP= 1.33D-05
 IDIUse=1 WtCom= 1.00D+00 WtEn= 0.00D+00
 Coeff-Com:  0.217D-03-0.291D-03 0.277D-03 0.346D-02-0.102D-01-0.154D-01
 Coeff-Com: -0.562D+00 0.158D+01
 Coeff:      0.217D-03-0.291D-03 0.277D-03 0.346D-02-0.102D-01-0.154D-01
 Coeff:     -0.562D+00 0.158D+01
 Gap=     0.190 Goal=   None    Shift=    0.000
 RMSDP=2.59D-05 MaxDP=5.15D-04 DE=-9.08D-06 OVMax= 7.34D-04

 Cycle   9  Pass 1  IDiag  1:
 E= -135.363661600727     Delta-E=       -0.000000144413 Rises=F Damp=F
 DIIS: error= 4.18D-06 at cycle   9 NSaved=   9.
 NSaved= 9 IEnMin= 9 EnMin= -135.363661600727     IErMin= 9 ErrMin= 4.18D-06
 ErrMax= 4.18D-06  0.00D+00 EMaxC= 1.00D-01 BMatC= 6.15D-10 BMatP= 2.20D-08
 IDIUse=1 WtCom= 1.00D+00 WtEn= 0.00D+00
 Coeff-Com: -0.289D-05 0.346D-05-0.116D-04-0.121D-03 0.133D-03 0.113D-02
 Coeff-Com:  0.139D-01-0.302D-01 0.102D+01
 Coeff:     -0.289D-05 0.346D-05-0.116D-04-0.121D-03 0.133D-03 0.113D-02
 Coeff:      0.139D-01-0.302D-01 0.102D+01
 Gap=     0.190 Goal=   None    Shift=    0.000
 RMSDP=6.42D-07 MaxDP=1.04D-05 DE=-1.44D-07 OVMax= 1.31D-05

 Cycle  10  Pass 1  IDiag  1:
 E= -135.363661601192     Delta-E=       -0.000000000464 Rises=F Damp=F
 DIIS: error= 6.84D-08 at cycle  10 NSaved=  10.
 NSaved=10 IEnMin=10 EnMin= -135.363661601192     IErMin=10 ErrMin= 6.84D-08
 ErrMax= 6.84D-08  0.00D+00 EMaxC= 1.00D-01 BMatC= 1.69D-13 BMatP= 6.15D-10
 IDIUse=1 WtCom= 1.00D+00 WtEn= 0.00D+00
 Coeff-Com: -0.635D-07 0.625D-07-0.222D-06 0.192D-06 0.297D-04-0.602D-04
 Coeff-Com:  0.383D-03-0.213D-02-0.422D-01 0.104D+01
 Coeff:     -0.635D-07 0.625D-07-0.222D-06 0.192D-06 0.297D-04-0.602D-04
 Coeff:      0.383D-03-0.213D-02-0.422D-01 0.104D+01
 Gap=     0.190 Goal=   None    Shift=    0.000
 RMSDP=2.50D-08 MaxDP=4.06D-07 DE=-4.64D-10 OVMax= 6.41D-07

 Cycle  11  Pass 1  IDiag  1:
 E= -135.363661601192     Delta-E=       -0.000000000000 Rises=F Damp=F
 DIIS: error= 2.84D-09 at cycle  11 NSaved=  11.
 NSaved=11 IEnMin=11 EnMin= -135.363661601192     IErMin=11 ErrMin= 2.84D-09
 ErrMax= 2.84D-09  0.00D+00 EMaxC= 1.00D-01 BMatC= 2.70D-16 BMatP= 1.69D-13
 IDIUse=1 WtCom= 1.00D+00 WtEn= 0.00D+00
 Coeff-Com:  0.169D-07-0.251D-07 0.526D-07 0.403D-06-0.156D-05-0.117D-05
 Coeff-Com: -0.707D-04 0.207D-03-0.476D-03-0.935D-01 0.109D+01
 Coeff:      0.169D-07-0.251D-07 0.526D-07 0.403D-06-0.156D-05-0.117D-05
 Coeff:     -0.707D-04 0.207D-03-0.476D-03-0.935D-01 0.109D+01
 Gap=     0.190 Goal=   None    Shift=    0.000
 RMSDP=2.30D-09 MaxDP=3.62D-08 DE=-3.41D-13 OVMax= 6.61D-08

 SCF Done:  E(RPBE1PBE) =  -135.363661601     A.U. after   11 cycles
            NFock= 11  Conv=0.23D-08     -V/T= 3.9393
 KE= 4.605346260559D+01 PE=-2.788865792245D+02 EE= 9.746945501771D+01
 Leave Link  502 at Mon Aug 16 12:11:19 2021, MaxMem=   104857600 cpu:               1.1 elap:               1.1
 (Enter /home/zhangjx/ssd/softwares/g16/l601.exe)
 Copying SCF densities to generalized density rwf, IOpCl= 0 IROHF=0.

 **********************************************************************

            Population analysis using the SCF density.

 **********************************************************************

 Alpha  occ. eigenvalues --   -4.47916  -2.65232  -2.65232  -2.65232  -0.62326
 Alpha  occ. eigenvalues --   -0.62326  -0.62326  -0.62326  -0.62326
 Alpha virt. eigenvalues --   -0.43297  -0.19324  -0.19324  -0.19324  -0.04838
 Alpha virt. eigenvalues --    0.08521   0.08521   0.08521   0.08521   0.08521
 Alpha virt. eigenvalues --    0.31723   0.31723   0.31723   1.21645   1.21645
 Alpha virt. eigenvalues --    1.21645   1.21645   1.21645   1.25007   1.25007
 Alpha virt. eigenvalues --    1.25007   1.25007   1.25007   1.25007   1.25007
 Alpha virt. eigenvalues --    1.75348  23.37337  23.37337  23.37337  43.53950
 Alpha virt. eigenvalues --  204.79179
          Condensed to atoms (all electrons):
               1
     1  Au  18.000000
 Mulliken charges:
               1
     1  Au   1.000000
 Sum of Mulliken charges =   1.00000
 Mulliken charges with hydrogens summed into heavy atoms:
               1
     1  Au   1.000000
 Electronic spatial extent (au):  <R**2>=             39.4726
 Charge=              1.0000 electrons
 Dipole moment (field-independent basis, Debye):
    X=              0.0000    Y=             -0.0000    Z=              0.0000  Tot=              0.0000
 Quadrupole moment (field-independent basis, Debye-Ang):
   XX=            -17.6973   YY=            -17.6973   ZZ=            -17.6973
   XY=              0.0000   XZ=              0.0000   YZ=             -0.0000
 Traceless Quadrupole moment (field-independent basis, Debye-Ang):
   XX=              0.0000   YY=             -0.0000   ZZ=             -0.0000
   XY=              0.0000   XZ=              0.0000   YZ=             -0.0000
 Octapole moment (field-independent basis, Debye-Ang**2):
  XXX=              0.0000  YYY=             -0.0000  ZZZ=              0.0000  XYY=              0.0000
  XXY=             -0.0000  XXZ=              0.0000  XZZ=              0.0000  YZZ=             -0.0000
  YYZ=              0.0000  XYZ=             -0.0000
 Hexadecapole moment (field-independent basis, Debye-Ang**3):
 XXXX=            -13.7446 YYYY=            -13.7446 ZZZZ=            -13.7446 XXXY=              0.0000
 XXXZ=              0.0000 YYYX=              0.0000 YYYZ=             -0.0000 ZZZX=             -0.0000
 ZZZY=             -0.0000 XXYY=             -4.5815 XXZZ=             -4.5815 YYZZ=             -4.5815
 XXYZ=              0.0000 YYXZ=              0.0000 ZZXY=             -0.0000
 N-N= 0.000000000000D+00 E-N=-2.788865792197D+02  KE= 4.605346260559D+01
 No NMR shielding tensors so no spin-rotation constants.
 Leave Link  601 at Mon Aug 16 12:11:19 2021, MaxMem=   104857600 cpu:               0.1 elap:               0.1
 (Enter /home/zhangjx/ssd/softwares/g16/l607.exe)
 ******************************Gaussian NBO Version 3.1******************************
             N A T U R A L   A T O M I C   O R B I T A L   A N D
          N A T U R A L   B O N D   O R B I T A L   A N A L Y S I S
 ******************************Gaussian NBO Version 3.1******************************

       /RESON  / : Allow strongly delocalized NBO set
       /SKIPBO / : Skip NBO transformation step
       /ARCHIVE/ : Write the archive file to LFN 47
       /BNDIDX / : Print bond indices based on the NAO density matrix
       /FILE   / : Set to AULE                                                

 Analyzing the SCF density

 Job title: Au                                                              

 Storage needed:      5122 in NPA ( 104857591 available)
 GSVD:  LWork=         -74 too small for GESVD, short by        3179 words or        3179 for optimal perf.


 NATURAL POPULATIONS:  Natural atomic orbital occupancies 
                                                          
   NAO  Atom  No  lang   Type(AO)    Occupancy      Energy
 ----------------------------------------------------------
     1   Au    1  S      Cor( 5S)     2.00000      -4.47916
     2   Au    1  S      Val( 6S)     0.00000       4.18598
     3   Au    1  S      Ryd( 7S)     0.00000      25.71321
     4   Au    1  S      Ryd(10S)     0.00000     142.44933
     5   Au    1  S      Ryd( 9S)     0.00000      51.25611
     6   Au    1  S      Ryd( 8S)     0.00000      25.99877
     7   Au    1  px     Cor( 5p)     2.00000      -2.65232
     8   Au    1  px     Val( 8p)     0.00000      20.97767
     9   Au    1  px     Ryd( 6p)     0.00000      -0.15166
    10   Au    1  px     Ryd( 7p)     0.00000       2.67135
    11   Au    1  py     Cor( 5p)     2.00000      -2.65232
    12   Au    1  py     Ryd( 8p)     0.00000      20.97767
    13   Au    1  py     Val( 6p)     0.00000      -0.15166
    14   Au    1  py     Ryd( 7p)     0.00000       2.67135
    15   Au    1  pz     Cor( 5p)     2.00000      -2.65232
    16   Au    1  pz     Ryd( 8p)     0.00000      20.97767
    17   Au    1  pz     Ryd( 6p)     0.00000      -0.15166
    18   Au    1  pz     Val( 7p)     0.00000       2.67135
    19   Au    1  dxy    Val( 5d)     2.00000      -0.62326
    20   Au    1  dxy    Ryd( 6d)     0.00000       0.10429
    21   Au    1  dxy    Ryd( 7d)     0.00000       1.19737
    22   Au    1  dxz    Val( 5d)     2.00000      -0.62326
    23   Au    1  dxz    Ryd( 6d)     0.00000       0.10429
    24   Au    1  dxz    Ryd( 7d)     0.00000       1.19737
    25   Au    1  dyz    Val( 5d)     2.00000      -0.62326
    26   Au    1  dyz    Ryd( 6d)     0.00000       0.10429
    27   Au    1  dyz    Ryd( 7d)     0.00000       1.19737
    28   Au    1  dx2y2  Val( 5d)     2.00000      -0.62326
    29   Au    1  dx2y2  Ryd( 6d)     0.00000       0.10429
    30   Au    1  dx2y2  Ryd( 7d)     0.00000       1.19737
    31   Au    1  dz2    Val( 5d)     2.00000      -0.62326
    32   Au    1  dz2    Ryd( 6d)     0.00000       0.10429
    33   Au    1  dz2    Ryd( 7d)     0.00000       1.19737
    34   Au    1  f(0)   Ryd( 5f)     0.00000       1.25007
    35   Au    1  f(C1)  Ryd( 5f)     0.00000       1.25007
    36   Au    1  f(S1)  Ryd( 5f)     0.00000       1.25007
    37   Au    1  f(C2)  Ryd( 5f)     0.00000       1.25007
    38   Au    1  f(S2)  Ryd( 5f)     0.00000       1.25007
    39   Au    1  f(C3)  Ryd( 5f)     0.00000       1.25007
    40   Au    1  f(S3)  Ryd( 5f)     0.00000       1.25007

 [ 60 electrons found in the effective core potential]

 WARNING:  Population inversion found on atom Au    1


 Summary of Natural Population Analysis:                  
                                                          
                                       Natural Population 
                Natural  -----------------------------------------------
    Atom  No    Charge         Core      Valence    Rydberg      Total
 -----------------------------------------------------------------------
     Au    1    1.00000     68.00000    10.00000    0.00000    78.00000
 =======================================================================
   * Total *    1.00000     68.00000    10.00000    0.00000    78.00000

                                 Natural Population      
 --------------------------------------------------------
   Effective Core            60.00000
   Core                       8.00000 (100.0000% of   8)
   Valence                   10.00000 (100.0000% of  10)
   Natural Minimal Basis     78.00000 (100.0000% of  78)
   Natural Rydberg Basis      0.00000 (  0.0000% of  78)
 --------------------------------------------------------

    Atom  No          Natural Electron Configuration
 ----------------------------------------------------------------------------
     Au    1      [core]5d(10.00)


 Wiberg bond index matrix in the NAO basis:                                    

     Atom    1
     ---- ------
   1. Au  0.0000


 Wiberg bond index, Totals by atom:                                            

     Atom    1
     ---- ------
   1. Au  0.0000


 Atom-atom overlap-weighted NAO bond order:                                    

     Atom    1
     ---- ------
   1. Au  0.0000


 Atom-atom overlap-weighted NAO bond order, Totals by atom:                    

     Atom    1
     ---- ------
   1. Au  0.0000


 MO bond order:                                                                

     Atom    1
     ---- ------
   1. Au  0.0000


 MO atomic valencies:                                                          

     Atom    1
     ---- ------
   1. Au  0.0000


 NBO analysis skipped by request.
 Leave Link  607 at Mon Aug 16 12:11:19 2021, MaxMem=   104857600 cpu:               0.3 elap:               0.3
 (Enter /home/zhangjx/ssd/softwares/g16/l9999.exe)
 1\1\GINC-LOCALHOST\SP\RPBE1PBE\def2TZVP\Au1(1+)\ZHANGJX\16-Aug-2021\0\
 \#p pbe1pbe/def2TZVP pop=nboread int=ultrafine nosymm\\Au\\1,1\Au,0,0.
 ,0.,0.\\Version=ES64L-G16RevA.03\HF=-135.3636616\RMSD=2.300e-09\Dipole
 =0.,0.,0.\Quadrupole=0.,0.,0.,0.,0.,0.\PG=OH [O(Au1)]\\@


 A SCIENTIST IS SOMEONE WHOSE CURIOSITY SURVIVES
 EDUCATION'S ASSAULTS ON IT.
                          - SIR HERMANN BONDI
 Job cpu time:       0 days  0 hours  0 minutes  1.8 seconds.
 Elapsed time:       0 days  0 hours  0 minutes  1.8 seconds.
 File lengths (MBytes):  RWF=      6 Int=      0 D2E=      0 Chk=      1 Scr=      1
 Normal termination of Gaussian 16 at Mon Aug 16 12:11:19 2021.
