 Entering Gaussian System, Link 0=/home/zhangjx/ssd/softwares/g16/g16
 Input=Au4L4-opt.gjf
 Output=Au4L4-opt.log
 Initial command:
 /home/zhangjx/ssd/softwares/g16/l1.exe "/home/zhangjx/ssd/scratch/Gau-840954.inp" -scrdir="/home/zhangjx/ssd/scratch/"
 Entering Link 1 = /home/zhangjx/ssd/softwares/g16/l1.exe PID=    840956.
  
 Copyright (c) 1988,1990,1992,1993,1995,1998,2003,2009,2016,
            Gaussian, Inc.  All Rights Reserved.
  
 This is part of the Gaussian(R) 16 program.  It is based on
 the Gaussian(R) 09 system (copyright 2009, Gaussian, Inc.),
 the Gaussian(R) 03 system (copyright 2003, Gaussian, Inc.),
 the Gaussian(R) 98 system (copyright 1998, Gaussian, Inc.),
 the Gaussian(R) 94 system (copyright 1995, Gaussian, Inc.),
 the Gaussian 92(TM) system (copyright 1992, Gaussian, Inc.),
 the Gaussian 90(TM) system (copyright 1990, Gaussian, Inc.),
 the Gaussian 88(TM) system (copyright 1988, Gaussian, Inc.),
 the Gaussian 86(TM) system (copyright 1986, Carnegie Mellon
 University), and the Gaussian 82(TM) system (copyright 1983,
 Carnegie Mellon University). Gaussian is a federally registered
 trademark of Gaussian, Inc.
  
 This software contains proprietary and confidential information,
 including trade secrets, belonging to Gaussian, Inc.
  
 This software is provided under written license and may be
 used, copied, transmitted, or stored only in accord with that
 written license.
  
 The following legend is applicable only to US Government
 contracts under FAR:
  
                    RESTRICTED RIGHTS LEGEND
  
 Use, reproduction and disclosure by the US Government is
 subject to restrictions as set forth in subparagraphs (a)
 and (c) of the Commercial Computer Software - Restricted
 Rights clause in FAR 52.227-19.
  
 Gaussian, Inc.
 340 Quinnipiac St., Bldg. 40, Wallingford CT 06492
  
  
 ---------------------------------------------------------------
 Warning -- This program may not be used in any manner that
 competes with the business of Gaussian, Inc. or will provide
 assistance to any competitor of Gaussian, Inc.  The licensee
 of this program is prohibited from giving any competitor of
 Gaussian, Inc. access to this program.  By using this program,
 the user acknowledges that Gaussian, Inc. is engaged in the
 business of creating and licensing software in the field of
 computational chemistry and represents and warrants to the
 licensee that it is not a competitor of Gaussian, Inc. and that
 it will not use this program in any manner prohibited above.
 ---------------------------------------------------------------
  

 Cite this work as:
 Gaussian 16, Revision A.03,
 M. J. Frisch, G. W. Trucks, H. B. Schlegel, G. E. Scuseria, 
 M. A. Robb, J. R. Cheeseman, G. Scalmani, V. Barone, 
 G. A. Petersson, H. Nakatsuji, X. Li, M. Caricato, A. V. Marenich, 
 J. Bloino, B. G. Janesko, R. Gomperts, B. Mennucci, H. P. Hratchian, 
 J. V. Ortiz, A. F. Izmaylov, J. L. Sonnenberg, D. Williams-Young, 
 F. Ding, F. Lipparini, F. Egidi, J. Goings, B. Peng, A. Petrone, 
 T. Henderson, D. Ranasinghe, V. G. Zakrzewski, J. Gao, N. Rega, 
 G. Zheng, W. Liang, M. Hada, M. Ehara, K. Toyota, R. Fukuda, 
 J. Hasegawa, M. Ishida, T. Nakajima, Y. Honda, O. Kitao, H. Nakai, 
 T. Vreven, K. Throssell, J. A. Montgomery, Jr., J. E. Peralta, 
 F. Ogliaro, M. J. Bearpark, J. J. Heyd, E. N. Brothers, K. N. Kudin, 
 V. N. Staroverov, T. A. Keith, R. Kobayashi, J. Normand, 
 K. Raghavachari, A. P. Rendell, J. C. Burant, S. S. Iyengar, 
 J. Tomasi, M. Cossi, J. M. Millam, M. Klene, C. Adamo, R. Cammi, 
 J. W. Ochterski, R. L. Martin, K. Morokuma, O. Farkas, 
 J. B. Foresman, and D. J. Fox, Gaussian, Inc., Wallingford CT, 2016.
 
 ******************************************
 Gaussian 16:  ES64L-G16RevA.03 25-Dec-2016
                16-Aug-2021 
 ******************************************
 %chk=Au4L4-opt.chk
 %nprocs=4
 Will use up to    4 processors via shared memory.
 %mem=2GB
 ------------------------------------
 #p opt pbe1pbe/def2SVP int=ultrafine
 ------------------------------------
 1/18=20,19=15,26=4,38=1/1,3;
 2/9=110,12=2,17=6,18=5,40=1/2;
 3/5=43,7=101,11=2,25=1,30=1,71=1,74=-13,75=-5/1,2,3;
 4//1;
 5/5=2,38=5/2;
 6/7=2,8=2,9=2,10=2,28=1/1;
 7//1,2,3,16;
 1/18=20,19=15,26=4/3(2);
 2/9=110/2;
 99//99;
 2/9=110/2;
 3/5=43,7=101,11=2,25=1,30=1,71=1,74=-13,75=-5/1,2,3;
 4/5=5,16=3,69=1/1;
 5/5=2,38=5/2;
 7//1,2,3,16;
 1/18=20,19=15,26=4/3(-5);
 2/9=110/2;
 6/7=2,8=2,9=2,10=2,19=2,28=1/1;
 99/9=1/99;
 Leave Link    1 at Mon Aug 16 12:07:48 2021, MaxMem=   268435456 cpu:               0.0 elap:               0.0
 (Enter /home/zhangjx/ssd/softwares/g16/l101.exe)
 ---------
 Au4L4-opt
 ---------
 Symbolic Z-matrix:
 Charge =  2 Multiplicity = 1
 Au                    0.        0.        1.77562 
 Au                    0.       -1.67407  -0.59187 
 Au                    1.44979   0.83703  -0.59187 
 Au                   -1.44979   0.83703  -0.59187 
 P                     0.        0.        4.16562 
 H                     1.076    -0.62123   4.61562 
 H                     0.        1.24246   4.61562 
 H                    -1.076    -0.62123   4.61562 
 P                     0.       -3.92738  -1.38854 
 H                     0.       -3.93749  -2.70994 
 H                     1.076    -4.55872  -0.95284 
 H                    -1.076    -4.55872  -0.95284 
 P                     3.40121   1.96369  -1.38854 
 H                     4.48597   1.34751  -0.95284 
 H                     3.40997   1.96875  -2.70994 
 H                     3.40997   3.21121  -0.95284 
 P                    -3.40121   1.96369  -1.38854 
 H                    -3.40997   3.21121  -0.95284 
 H                    -3.40997   1.96875  -2.70994 
 H                    -4.48597   1.34751  -0.95284 
 
 ITRead=  0  0  0  0  0  0  0  0  0  0  0  0  0  0  0  0  0  0  0  0
 MicOpt= -1 -1 -1 -1 -1 -1 -1 -1 -1 -1 -1 -1 -1 -1 -1 -1 -1 -1 -1 -1
 NAtoms=     20 NQM=       20 NQMF=       0 NMMI=      0 NMMIF=      0
                NMic=       0 NMicF=      0.
                    Isotopes and Nuclear Properties:
 (Nuclear quadrupole moments (NQMom) in fm**2, nuclear magnetic moments (NMagM)
  in nuclear magnetons)

  Atom         1           2           3           4           5           6           7           8           9          10
 IAtWgt=         197         197         197         197          31           1           1           1          31           1
 AtmWgt= 196.9666000 196.9666000 196.9666000 196.9666000  30.9737634   1.0078250   1.0078250   1.0078250  30.9737634   1.0078250
 NucSpn=           3           3           3           3           1           1           1           1           1           1
 AtZEff=  -0.0000000  -0.0000000  -0.0000000  -0.0000000  -0.0000000  -0.0000000  -0.0000000  -0.0000000  -0.0000000  -0.0000000
 NQMom=   54.7000000  54.7000000  54.7000000  54.7000000   0.0000000   0.0000000   0.0000000   0.0000000   0.0000000   0.0000000
 NMagM=    0.1481590   0.1481590   0.1481590   0.1481590   1.1316000   2.7928460   2.7928460   2.7928460   1.1316000   2.7928460
 AtZNuc=  79.0000000  79.0000000  79.0000000  79.0000000  15.0000000   1.0000000   1.0000000   1.0000000  15.0000000   1.0000000

  Atom        11          12          13          14          15          16          17          18          19          20
 IAtWgt=           1           1          31           1           1           1          31           1           1           1
 AtmWgt=   1.0078250   1.0078250  30.9737634   1.0078250   1.0078250   1.0078250  30.9737634   1.0078250   1.0078250   1.0078250
 NucSpn=           1           1           1           1           1           1           1           1           1           1
 AtZEff=  -0.0000000  -0.0000000  -0.0000000  -0.0000000  -0.0000000  -0.0000000  -0.0000000  -0.0000000  -0.0000000  -0.0000000
 NQMom=    0.0000000   0.0000000   0.0000000   0.0000000   0.0000000   0.0000000   0.0000000   0.0000000   0.0000000   0.0000000
 NMagM=    2.7928460   2.7928460   1.1316000   2.7928460   2.7928460   2.7928460   1.1316000   2.7928460   2.7928460   2.7928460
 AtZNuc=   1.0000000   1.0000000  15.0000000   1.0000000   1.0000000   1.0000000  15.0000000   1.0000000   1.0000000   1.0000000
 Leave Link  101 at Mon Aug 16 12:07:49 2021, MaxMem=   268435456 cpu:               0.4 elap:               0.1
 (Enter /home/zhangjx/ssd/softwares/g16/l103.exe)

 GradGradGradGradGradGradGradGradGradGradGradGradGradGradGradGradGradGrad
 Berny optimization.
 Initialization pass.
                           ----------------------------
                           !    Initial Parameters    !
                           ! (Angstroms and Degrees)  !
 --------------------------                            --------------------------
 ! Name  Definition              Value          Derivative Info.                !
 --------------------------------------------------------------------------------
 ! R1    R(1,2)                  2.8996         estimate D2E/DX2                !
 ! R2    R(1,3)                  2.8996         estimate D2E/DX2                !
 ! R3    R(1,4)                  2.8996         estimate D2E/DX2                !
 ! R4    R(1,5)                  2.39           estimate D2E/DX2                !
 ! R5    R(2,3)                  2.8996         estimate D2E/DX2                !
 ! R6    R(2,4)                  2.8996         estimate D2E/DX2                !
 ! R7    R(2,9)                  2.39           estimate D2E/DX2                !
 ! R8    R(3,4)                  2.8996         estimate D2E/DX2                !
 ! R9    R(3,13)                 2.39           estimate D2E/DX2                !
 ! R10   R(4,17)                 2.39           estimate D2E/DX2                !
 ! R11   R(5,6)                  1.3214         estimate D2E/DX2                !
 ! R12   R(5,7)                  1.3214         estimate D2E/DX2                !
 ! R13   R(5,8)                  1.3214         estimate D2E/DX2                !
 ! R14   R(9,10)                 1.3214         estimate D2E/DX2                !
 ! R15   R(9,11)                 1.3214         estimate D2E/DX2                !
 ! R16   R(9,12)                 1.3214         estimate D2E/DX2                !
 ! R17   R(13,14)                1.3214         estimate D2E/DX2                !
 ! R18   R(13,15)                1.3214         estimate D2E/DX2                !
 ! R19   R(13,16)                1.3214         estimate D2E/DX2                !
 ! R20   R(17,18)                1.3214         estimate D2E/DX2                !
 ! R21   R(17,19)                1.3214         estimate D2E/DX2                !
 ! R22   R(17,20)                1.3214         estimate D2E/DX2                !
 ! A1    A(2,1,5)              144.7356         estimate D2E/DX2                !
 ! A2    A(3,1,5)              144.7356         estimate D2E/DX2                !
 ! A3    A(4,1,5)              144.7356         estimate D2E/DX2                !
 ! A4    A(1,2,9)              144.7356         estimate D2E/DX2                !
 ! A5    A(3,2,9)              144.7356         estimate D2E/DX2                !
 ! A6    A(4,2,9)              144.7356         estimate D2E/DX2                !
 ! A7    A(1,3,13)             144.7356         estimate D2E/DX2                !
 ! A8    A(2,3,13)             144.7356         estimate D2E/DX2                !
 ! A9    A(4,3,13)             144.7356         estimate D2E/DX2                !
 ! A10   A(1,4,17)             144.7356         estimate D2E/DX2                !
 ! A11   A(2,4,17)             144.7356         estimate D2E/DX2                !
 ! A12   A(3,4,17)             144.7356         estimate D2E/DX2                !
 ! A13   A(1,5,6)              109.9095         estimate D2E/DX2                !
 ! A14   A(1,5,7)              109.9095         estimate D2E/DX2                !
 ! A15   A(1,5,8)              109.9095         estimate D2E/DX2                !
 ! A16   A(6,5,7)              109.0294         estimate D2E/DX2                !
 ! A17   A(6,5,8)              109.0294         estimate D2E/DX2                !
 ! A18   A(7,5,8)              109.0294         estimate D2E/DX2                !
 ! A19   A(2,9,10)             109.9095         estimate D2E/DX2                !
 ! A20   A(2,9,11)             109.9095         estimate D2E/DX2                !
 ! A21   A(2,9,12)             109.9095         estimate D2E/DX2                !
 ! A22   A(10,9,11)            109.0294         estimate D2E/DX2                !
 ! A23   A(10,9,12)            109.0294         estimate D2E/DX2                !
 ! A24   A(11,9,12)            109.0294         estimate D2E/DX2                !
 ! A25   A(3,13,14)            109.9095         estimate D2E/DX2                !
 ! A26   A(3,13,15)            109.9095         estimate D2E/DX2                !
 ! A27   A(3,13,16)            109.9095         estimate D2E/DX2                !
 ! A28   A(14,13,15)           109.0294         estimate D2E/DX2                !
 ! A29   A(14,13,16)           109.0294         estimate D2E/DX2                !
 ! A30   A(15,13,16)           109.0294         estimate D2E/DX2                !
 ! A31   A(4,17,18)            109.9095         estimate D2E/DX2                !
 ! A32   A(4,17,19)            109.9095         estimate D2E/DX2                !
 ! A33   A(4,17,20)            109.9095         estimate D2E/DX2                !
 ! A34   A(18,17,19)           109.0294         estimate D2E/DX2                !
 ! A35   A(18,17,20)           109.0294         estimate D2E/DX2                !
 ! A36   A(19,17,20)           109.0294         estimate D2E/DX2                !
 ! D1    D(5,1,2,9)              0.0            estimate D2E/DX2                !
 ! D2    D(5,1,3,13)             0.0            estimate D2E/DX2                !
 ! D3    D(5,1,4,17)             0.0            estimate D2E/DX2                !
 ! D4    D(2,1,5,6)             60.0            estimate D2E/DX2                !
 ! D5    D(2,1,5,7)            180.0            estimate D2E/DX2                !
 ! D6    D(2,1,5,8)            -60.0            estimate D2E/DX2                !
 ! D7    D(3,1,5,6)            -60.0            estimate D2E/DX2                !
 ! D8    D(3,1,5,7)             60.0            estimate D2E/DX2                !
 ! D9    D(3,1,5,8)            180.0            estimate D2E/DX2                !
 ! D10   D(4,1,5,6)            180.0            estimate D2E/DX2                !
 ! D11   D(4,1,5,7)            -60.0            estimate D2E/DX2                !
 ! D12   D(4,1,5,8)             60.0            estimate D2E/DX2                !
 ! D13   D(9,2,3,13)             0.0            estimate D2E/DX2                !
 ! D14   D(9,2,4,17)             0.0            estimate D2E/DX2                !
 ! D15   D(1,2,9,10)           180.0            estimate D2E/DX2                !
 ! D16   D(1,2,9,11)           -60.0            estimate D2E/DX2                !
 ! D17   D(1,2,9,12)            60.0            estimate D2E/DX2                !
 ! D18   D(3,2,9,10)           -60.0            estimate D2E/DX2                !
 ! D19   D(3,2,9,11)            60.0            estimate D2E/DX2                !
 ! D20   D(3,2,9,12)           180.0            estimate D2E/DX2                !
 ! D21   D(4,2,9,10)            60.0            estimate D2E/DX2                !
 ! D22   D(4,2,9,11)           180.0            estimate D2E/DX2                !
 ! D23   D(4,2,9,12)           -60.0            estimate D2E/DX2                !
 ! D24   D(13,3,4,17)            0.0            estimate D2E/DX2                !
 ! D25   D(1,3,13,14)           60.0            estimate D2E/DX2                !
 ! D26   D(1,3,13,15)          180.0            estimate D2E/DX2                !
 ! D27   D(1,3,13,16)          -60.0            estimate D2E/DX2                !
 ! D28   D(2,3,13,14)          -60.0            estimate D2E/DX2                !
 ! D29   D(2,3,13,15)           60.0            estimate D2E/DX2                !
 ! D30   D(2,3,13,16)          180.0            estimate D2E/DX2                !
 ! D31   D(4,3,13,14)          180.0            estimate D2E/DX2                !
 ! D32   D(4,3,13,15)          -60.0            estimate D2E/DX2                !
 ! D33   D(4,3,13,16)           60.0            estimate D2E/DX2                !
 ! D34   D(1,4,17,18)           60.0            estimate D2E/DX2                !
 ! D35   D(1,4,17,19)          180.0            estimate D2E/DX2                !
 ! D36   D(1,4,17,20)          -60.0            estimate D2E/DX2                !
 ! D37   D(2,4,17,18)          180.0            estimate D2E/DX2                !
 ! D38   D(2,4,17,19)          -60.0            estimate D2E/DX2                !
 ! D39   D(2,4,17,20)           60.0            estimate D2E/DX2                !
 ! D40   D(3,4,17,18)          -60.0            estimate D2E/DX2                !
 ! D41   D(3,4,17,19)           60.0            estimate D2E/DX2                !
 ! D42   D(3,4,17,20)          180.0            estimate D2E/DX2                !
 --------------------------------------------------------------------------------
 Trust Radius=3.00D-01 FncErr=1.00D-07 GrdErr=1.00D-06 EigMax=2.50D+02 EigMin=1.00D-04
 Number of steps in this run=    110 maximum allowed number of steps=    120.
 GradGradGradGradGradGradGradGradGradGradGradGradGradGradGradGradGradGrad

 Leave Link  103 at Mon Aug 16 12:07:49 2021, MaxMem=   268435456 cpu:               0.0 elap:               0.0
 (Enter /home/zhangjx/ssd/softwares/g16/l202.exe)
                          Input orientation:                          
 ---------------------------------------------------------------------
 Center     Atomic      Atomic             Coordinates (Angstroms)
 Number     Number       Type             X           Y           Z
 ---------------------------------------------------------------------
      1         79           0        0.000000    0.000000    1.775617
      2         79           0        0.000000   -1.674068   -0.591872
      3         79           0        1.449785    0.837034   -0.591872
      4         79           0       -1.449785    0.837034   -0.591872
      5         15           0        0.000000    0.000000    4.165617
      6          1           0        1.076005   -0.621232    4.615617
      7          1           0        0.000000    1.242463    4.615617
      8          1           0       -1.076005   -0.621232    4.615617
      9         15           0        0.000000   -3.927381   -1.388539
     10          1           0        0.000000   -3.937491   -2.709945
     11          1           0        1.076005   -4.558722   -0.952836
     12          1           0       -1.076005   -4.558722   -0.952836
     13         15           0        3.401212    1.963691   -1.388539
     14          1           0        4.485972    1.347514   -0.952836
     15          1           0        3.409967    1.968745   -2.709945
     16          1           0        3.409967    3.211209   -0.952836
     17         15           0       -3.401212    1.963691   -1.388539
     18          1           0       -3.409967    3.211209   -0.952836
     19          1           0       -3.409967    1.968745   -2.709945
     20          1           0       -4.485972    1.347514   -0.952836
 ---------------------------------------------------------------------
                    Distance matrix (angstroms):
                    1          2          3          4          5
     1  Au   0.000000
     2  Au   2.899570   0.000000
     3  Au   2.899570   2.899570   0.000000
     4  Au   2.899570   2.899570   2.899570   0.000000
     5  P    2.390000   5.043432   5.043432   5.043432   0.000000
     6  H    3.099889   5.420719   5.420719   5.968592   1.321444
     7  H    3.099889   5.968592   5.420719   5.420719   1.321444
     8  H    3.099889   5.420719   5.968592   5.420719   1.321444
     9  P    5.043432   2.390000   5.043432   5.043432   6.802424
    10  H    5.968592   3.099889   5.420719   5.420719   7.923205
    11  H    5.420719   3.099889   5.420719   5.968592   6.938177
    12  H    5.420719   3.099889   5.968592   5.420719   6.938177
    13  P    5.043432   5.043432   2.390000   5.043432   6.802424
    14  H    5.420719   5.420719   3.099889   5.968592   6.938177
    15  H    5.968592   5.420719   3.099889   5.420719   7.923205
    16  H    5.420719   5.968592   3.099889   5.420719   6.938177
    17  P    5.043432   5.043432   5.043432   2.390000   6.802424
    18  H    5.420719   5.968592   5.420719   3.099889   6.938177
    19  H    5.968592   5.420719   5.420719   3.099889   7.923205
    20  H    5.420719   5.420719   5.968592   3.099889   6.938177
                    6          7          8          9         10
     6  H    0.000000
     7  H    2.152010   0.000000
     8  H    2.152010   2.152010   0.000000
     9  P    6.938177   7.923205   6.938177   0.000000
    10  H    8.112904   8.971944   8.112904   1.321444   0.000000
    11  H    6.819934   8.112904   7.151408   1.321444   2.152010
    12  H    7.151408   8.112904   6.819934   1.321444   2.152010
    13  P    6.938177   6.938177   7.923205   6.802424   6.938177
    14  H    6.819934   7.151408   8.112904   6.938177   7.151408
    15  H    8.112904   8.112904   8.971944   6.938177   6.819934
    16  H    7.151408   6.819934   8.112904   7.923205   8.112904
    17  P    7.923205   6.938177   6.938177   6.802424   6.938177
    18  H    8.112904   6.819934   7.151408   7.923205   8.112904
    19  H    8.971944   8.112904   8.112904   6.938177   6.819934
    20  H    8.112904   7.151408   6.819934   6.938177   7.151408
                   11         12         13         14         15
    11  H    0.000000
    12  H    2.152010   0.000000
    13  P    6.938177   7.923205   0.000000
    14  H    6.819934   8.112904   1.321444   0.000000
    15  H    7.151408   8.112904   1.321444   2.152010   0.000000
    16  H    8.112904   8.971944   1.321444   2.152010   2.152010
    17  P    7.923205   6.938177   6.802424   7.923205   6.938177
    18  H    8.971944   8.112904   6.938177   8.112904   7.151408
    19  H    8.112904   7.151408   6.938177   8.112904   6.819934
    20  H    8.112904   6.819934   7.923205   8.971944   8.112904
                   16         17         18         19         20
    16  H    0.000000
    17  P    6.938177   0.000000
    18  H    6.819934   1.321444   0.000000
    19  H    7.151408   1.321444   2.152010   0.000000
    20  H    8.112904   1.321444   2.152010   2.152010   0.000000
 Stoichiometry    Au4H12P4(2+)
 Framework group  TD[4C3(.AuP),6SGD(H2)]
 Deg. of freedom     4
 Full point group                 TD      NOp  24
 Largest Abelian subgroup         D2      NOp   4
 Largest concise Abelian subgroup D2      NOp   4
                         Standard orientation:                         
 ---------------------------------------------------------------------
 Center     Atomic      Atomic             Coordinates (Angstroms)
 Number     Number       Type             X           Y           Z
 ---------------------------------------------------------------------
      1         79           0        1.025153    1.025153    1.025153
      2         79           0       -1.025153   -1.025153    1.025153
      3         79           0        1.025153   -1.025153   -1.025153
      4         79           0       -1.025153    1.025153   -1.025153
      5         15           0        2.405020    2.405020    2.405020
      6          1           0        3.172061    1.650360    3.172061
      7          1           0        3.172061    3.172061    1.650360
      8          1           0        1.650360    3.172061    3.172061
      9         15           0       -2.405020   -2.405020    2.405020
     10          1           0       -3.172061   -3.172061    1.650360
     11          1           0       -1.650360   -3.172061    3.172061
     12          1           0       -3.172061   -1.650360    3.172061
     13         15           0        2.405020   -2.405020   -2.405020
     14          1           0        3.172061   -3.172061   -1.650360
     15          1           0        1.650360   -3.172061   -3.172061
     16          1           0        3.172061   -1.650360   -3.172061
     17         15           0       -2.405020    2.405020   -2.405020
     18          1           0       -1.650360    3.172061   -3.172061
     19          1           0       -3.172061    1.650360   -3.172061
     20          1           0       -3.172061    3.172061   -1.650360
 ---------------------------------------------------------------------
 Rotational constants (GHZ):           0.1543869           0.1543869           0.1543869
 Leave Link  202 at Mon Aug 16 12:07:49 2021, MaxMem=   268435456 cpu:               0.0 elap:               0.0
 (Enter /home/zhangjx/ssd/softwares/g16/l301.exe)
 Standard basis: def2SVP (5D, 7F)
 Ernie: Thresh=  0.10000D-02 Tol=  0.10000D-05 Strict=F.
 There are    71 symmetry adapted cartesian basis functions of A   symmetry.
 There are    71 symmetry adapted cartesian basis functions of B1  symmetry.
 There are    71 symmetry adapted cartesian basis functions of B2  symmetry.
 There are    71 symmetry adapted cartesian basis functions of B3  symmetry.
 There are    65 symmetry adapted basis functions of A   symmetry.
 There are    65 symmetry adapted basis functions of B1  symmetry.
 There are    65 symmetry adapted basis functions of B2  symmetry.
 There are    65 symmetry adapted basis functions of B3  symmetry.
   260 basis functions,   492 primitive gaussians,   284 cartesian basis functions
    73 alpha electrons       73 beta electrons
       nuclear repulsion energy      1333.4714594133 Hartrees.
 IExCor= 1009 DFT=T Ex+Corr=PBE1PBE ExCW=0 ScaHFX=  0.250000
 ScaDFX=  0.750000  0.750000  1.000000  1.000000 ScalE2=  1.000000  1.000000
 IRadAn=      5 IRanWt=     -1 IRanGd=            0 ICorTp=0 IEmpDi=  4
 NAtoms=   20 NActive=   20 NUniq=    3 SFac= 4.00D+00 NAtFMM=   60 NAOKFM=F Big=F
 Integral buffers will be    131072 words long.
 Raffenetti 2 integral format.
 Two-electron integral symmetry is turned on.
 Leave Link  301 at Mon Aug 16 12:07:49 2021, MaxMem=   268435456 cpu:               0.1 elap:               0.0
 (Enter /home/zhangjx/ssd/softwares/g16/l302.exe)
 NPDir=0 NMtPBC=     1 NCelOv=     1 NCel=       1 NClECP=     1 NCelD=      1
         NCelK=      1 NCelE2=     1 NClLst=     1 CellRange=     0.0.
 One-electron integrals computed using PRISM.
 One-electron integral symmetry used in STVInt
  24 Symmetry operations used in ECPInt.
 ECPInt:  NShTT=    6786 NPrTT=   21916 LenC2=    6053 LenP2D=   14036.
 LDataN:  DoStor=T MaxTD1= 7 Len=  274
 NBasis=   260 RedAO= T EigKep=  1.71D-03  NBF=    65    65    65    65
 NBsUse=   260 1.00D-06 EigRej= -1.00D+00 NBFU=    65    65    65    65
 Precomputing XC quadrature grid using
 IXCGrd= 4 IRadAn=           5 IRanWt=          -1 IRanGd=           0 AccXCQ= 0.00D+00.
 Defaulting to unpruned grid for atomic number  79.
 Generated NRdTot=       0 NPtTot=           0 NUsed=           0 NTot=          32
 NSgBfM=   279   279   279   279   279 MxSgAt=    20 MxSgA2=    20.
 Leave Link  302 at Mon Aug 16 12:07:49 2021, MaxMem=   268435456 cpu:               1.3 elap:               0.3
 (Enter /home/zhangjx/ssd/softwares/g16/l303.exe)
 DipDrv:  MaxL=1.
 Leave Link  303 at Mon Aug 16 12:07:49 2021, MaxMem=   268435456 cpu:               0.1 elap:               0.0
 (Enter /home/zhangjx/ssd/softwares/g16/l401.exe)
 ExpMin= 4.89D-02 ExpMax= 8.00D+03 ExpMxC= 1.20D+03 IAcc=3 IRadAn=         5 AccDes= 0.00D+00
 Harris functional with IExCor= 1009 and IRadAn=       5 diagonalized for initial guess.
 HarFok:  IExCor= 1009 AccDes= 0.00D+00 IRadAn=         5 IDoV= 1 UseB2=F ITyADJ=14
 ICtDFT=  3500011 ScaDFX=  1.000000  1.000000  1.000000  1.000000
 Defaulting to unpruned grid for atomic number  79.
 FoFCou: FMM=F IPFlag=           0 FMFlag=      100000 FMFlg1=           0
         NFxFlg=           0 DoJE=T BraDBF=F KetDBF=T FulRan=T
         wScrn=  0.000000 ICntrl=       500 IOpCl=  0 I1Cent=   200000004 NGrid=           0
         NMat0=    1 NMatS0=      1 NMatT0=    0 NMatD0=    1 NMtDS0=    0 NMtDT0=    0
 Petite list used in FoFCou.
 Harris En= -1913.76304850071    
 JPrj=0 DoOrth=F DoCkMO=F.
 Initial guess orbital symmetries:
       Occupied  (T2) (T2) (T2) (A1) (T2) (T2) (T2) (A1) (T1) (T1)
                 (T1) (T2) (T2) (T2) (E) (E) (T2) (T2) (T2) (A1)
                 (A1) (T2) (T2) (T2) (A1) (T2) (T2) (T2) (E) (E)
                 (T2) (T2) (T2) (T1) (T1) (T1) (A1) (T2) (T2) (T2)
                 (T2) (T2) (T2) (E) (E) (T1) (T1) (T1) (A1) (T2)
                 (T2) (T2) (A1) (T2) (T2) (T2) (E) (E) (T2) (T2)
                 (T2) (A1) (E) (E) (T1) (T1) (T1) (T2) (T2) (T2)
                 (T1) (T1) (T1)
       Virtual   (T2) (T2) (T2) (E) (E) (A1) (T2) (T2) (T2) (T1)
                 (T1) (T1) (T2) (T2) (T2) (T2) (T2) (T2) (E) (E)
                 (A1) (T1) (T1) (T1) (T2) (T2) (T2) (A1) (T2) (T2)
                 (T2) (E) (E) (T2) (T2) (T2) (T1) (T1) (T1) (T2)
                 (T2) (T2) (A1) (E) (E) (T2) (T2) (T2) (T1) (T1)
                 (T1) (A1) (T2) (T2) (T2) (T2) (T2) (T2) (A1) (T2)
                 (T2) (T2) (E) (E) (T1) (T1) (T1) (T2) (T2) (T2)
                 (A1) (E) (E) (T1) (T1) (T1) (T2) (T2) (T2) (T1)
                 (T1) (T1) (E) (E) (T2) (T2) (T2) (A1) (T2) (T2)
                 (T2) (E) (E) (T2) (T2) (T2) (T1) (T1) (T1) (E)
                 (E) (T1) (T1) (T1) (T2) (T2) (T2) (T2) (T2) (T2)
                 (A2) (T1) (T1) (T1) (A1) (E) (E) (T2) (T2) (T2)
                 (T1) (T1) (T1) (T2) (T2) (T2) (A2) (T1) (T1) (T1)
                 (A1) (T2) (T2) (T2) (E) (E) (T1) (T1) (T1) (E)
                 (E) (T2) (T2) (T2) (A1) (T2) (T2) (T2) (T2) (T2)
                 (T2) (T1) (T1) (T1) (A1) (E) (E) (T2) (T2) (T2)
                 (T1) (T1) (T1) (A1) (T2) (T2) (T2) (A1) (E) (E)
                 (T1) (T1) (T1) (T2) (T2) (T2) (T2) (T2) (T2) (A1)
                 (T2) (T2) (T2) (A1) (T2) (T2) (T2)
 The electronic state of the initial guess is 1-A1.
 Leave Link  401 at Mon Aug 16 12:07:49 2021, MaxMem=   268435456 cpu:               1.5 elap:               0.4
 (Enter /home/zhangjx/ssd/softwares/g16/l502.exe)
 Integral symmetry usage will be decided dynamically.
 Closed shell SCF:
 Using DIIS extrapolation, IDIIS=  1040.
 NGot=   268435456 LenX=   268265256 LenY=   268184159
 Requested convergence on RMS density matrix=1.00D-08 within 128 cycles.
 Requested convergence on MAX density matrix=1.00D-06.
 Requested convergence on             energy=1.00D-06.
 No special actions if energy rises.
 Fock matrices will be formed incrementally for  20 cycles.

 Cycle   1  Pass 1  IDiag  1:
 FoFJK:  IHMeth= 1 ICntrl=       0 DoSepK=F KAlg= 0 I1Cent=           0 FoldK=F
 IRaf= 830000000 NMat=       1 IRICut=       1 DoRegI=T DoRafI=F ISym2E= 1 IDoP0=0 IntGTp=1.
 FoFCou: FMM=F IPFlag=           0 FMFlag=      100000 FMFlg1=           0
         NFxFlg=           0 DoJE=F BraDBF=F KetDBF=F FulRan=T
         wScrn=  0.000000 ICntrl=         0 IOpCl=  0 I1Cent=           0 NGrid=           0
         NMat0=    1 NMatS0=      1 NMatT0=    0 NMatD0=    1 NMtDS0=    0 NMtDT0=    0
 Petite list used in FoFCou.
 Defaulting to unpruned grid for atomic number  79.
 Defaulting to unpruned grid for atomic number  79.
 Defaulting to unpruned grid for atomic number  79.
 Defaulting to unpruned grid for atomic number  79.
 E= -1912.92275822835    
 DIIS: error= 7.83D-02 at cycle   1 NSaved=   1.
 NSaved= 1 IEnMin= 1 EnMin= -1912.92275822835     IErMin= 1 ErrMin= 7.83D-02
 ErrMax= 7.83D-02  0.00D+00 EMaxC= 1.00D-01 BMatC= 1.49D+00 BMatP= 1.49D+00
 IDIUse=3 WtCom= 2.17D-01 WtEn= 7.83D-01
 Coeff-Com:  0.100D+01
 Coeff-En:   0.100D+01
 Coeff:      0.100D+01
 Gap=     0.445 Goal=   None    Shift=    0.000
 GapD=    0.445 DampG=2.000 DampE=0.250 DampFc=0.5000 IDamp=-1.
 Damping current iteration by 5.00D-01
 RMSDP=1.33D-02 MaxDP=5.00D-01              OVMax= 3.85D-01

 Cycle   2  Pass 1  IDiag  1:
 RMSU=  6.47D-03    CP:  1.04D+00
 E= -1913.33717498556     Delta-E=       -0.414416757210 Rises=F Damp=T
 DIIS: error= 1.97D-02 at cycle   2 NSaved=   2.
 NSaved= 2 IEnMin= 2 EnMin= -1913.33717498556     IErMin= 2 ErrMin= 1.97D-02
 ErrMax= 1.97D-02  0.00D+00 EMaxC= 1.00D-01 BMatC= 1.50D-01 BMatP= 1.49D+00
 IDIUse=3 WtCom= 8.03D-01 WtEn= 1.97D-01
 Coeff-Com:  0.188D+00 0.812D+00
 Coeff-En:   0.321D+00 0.679D+00
 Coeff:      0.214D+00 0.786D+00
 Gap=     0.225 Goal=   None    Shift=    0.000
 RMSDP=5.13D-03 MaxDP=2.76D-01 DE=-4.14D-01 OVMax= 3.73D-01

 Cycle   3  Pass 1  IDiag  1:
 RMSU=  3.98D-03    CP:  1.02D+00  5.15D-01
 E= -1914.09399314272     Delta-E=       -0.756818157160 Rises=F Damp=F
 DIIS: error= 1.65D-02 at cycle   3 NSaved=   3.
 NSaved= 3 IEnMin= 3 EnMin= -1914.09399314272     IErMin= 3 ErrMin= 1.65D-02
 ErrMax= 1.65D-02  0.00D+00 EMaxC= 1.00D-01 BMatC= 8.85D-02 BMatP= 1.50D-01
 IDIUse=3 WtCom= 8.35D-01 WtEn= 1.65D-01
 Coeff-Com:  0.108D+00 0.416D+00 0.476D+00
 Coeff-En:   0.000D+00 0.000D+00 0.100D+01
 Coeff:      0.903D-01 0.348D+00 0.562D+00
 Gap=     0.213 Goal=   None    Shift=    0.000
 RMSDP=1.49D-03 MaxDP=4.54D-02 DE=-7.57D-01 OVMax= 5.02D-02

 Cycle   4  Pass 1  IDiag  1:
 RMSU=  1.36D-03    CP:  1.01D+00  5.04D-01  8.63D-01
 E= -1914.15799128468     Delta-E=       -0.063998141958 Rises=F Damp=F
 DIIS: error= 5.63D-03 at cycle   4 NSaved=   4.
 NSaved= 4 IEnMin= 4 EnMin= -1914.15799128468     IErMin= 4 ErrMin= 5.63D-03
 ErrMax= 5.63D-03  0.00D+00 EMaxC= 1.00D-01 BMatC= 5.92D-03 BMatP= 8.85D-02
 IDIUse=3 WtCom= 9.44D-01 WtEn= 5.63D-02
 Coeff-Com:  0.178D-01-0.520D-02 0.195D+00 0.793D+00
 Coeff-En:   0.000D+00 0.000D+00 0.000D+00 0.100D+01
 Coeff:      0.168D-01-0.490D-02 0.184D+00 0.804D+00
 Gap=     0.204 Goal=   None    Shift=    0.000
 RMSDP=3.09D-04 MaxDP=5.59D-03 DE=-6.40D-02 OVMax= 9.21D-03

 Cycle   5  Pass 1  IDiag  1:
 RMSU=  2.65D-04    CP:  1.01D+00  4.98D-01  8.99D-01  9.62D-01
 E= -1914.16150179859     Delta-E=       -0.003510513908 Rises=F Damp=F
 DIIS: error= 8.02D-04 at cycle   5 NSaved=   5.
 NSaved= 5 IEnMin= 5 EnMin= -1914.16150179859     IErMin= 5 ErrMin= 8.02D-04
 ErrMax= 8.02D-04  0.00D+00 EMaxC= 1.00D-01 BMatC= 2.60D-04 BMatP= 5.92D-03
 IDIUse=3 WtCom= 9.92D-01 WtEn= 8.02D-03
 Coeff-Com:  0.410D-02-0.241D-01 0.445D-01 0.295D+00 0.681D+00
 Coeff-En:   0.000D+00 0.000D+00 0.000D+00 0.000D+00 0.100D+01
 Coeff:      0.407D-02-0.239D-01 0.441D-01 0.293D+00 0.683D+00
 Gap=     0.206 Goal=   None    Shift=    0.000
 RMSDP=1.30D-04 MaxDP=5.14D-03 DE=-3.51D-03 OVMax= 5.03D-03

 Cycle   6  Pass 1  IDiag  1:
 RMSU=  8.42D-05    CP:  1.01D+00  4.87D-01  9.08D-01  9.54D-01  7.89D-01
 E= -1914.16182906122     Delta-E=       -0.000327262628 Rises=F Damp=F
 DIIS: error= 1.02D-04 at cycle   6 NSaved=   6.
 NSaved= 6 IEnMin= 6 EnMin= -1914.16182906122     IErMin= 6 ErrMin= 1.02D-04
 ErrMax= 1.02D-04  0.00D+00 EMaxC= 1.00D-01 BMatC= 4.54D-06 BMatP= 2.60D-04
 IDIUse=3 WtCom= 9.99D-01 WtEn= 1.02D-03
 Coeff-Com: -0.230D-03-0.660D-03 0.162D-02-0.245D-02 0.870D-01 0.915D+00
 Coeff-En:   0.000D+00 0.000D+00 0.000D+00 0.000D+00 0.000D+00 0.100D+01
 Coeff:     -0.230D-03-0.660D-03 0.161D-02-0.245D-02 0.869D-01 0.915D+00
 Gap=     0.206 Goal=   None    Shift=    0.000
 RMSDP=1.31D-05 MaxDP=4.71D-04 DE=-3.27D-04 OVMax= 5.56D-04

 Cycle   7  Pass 1  IDiag  1:
 RMSU=  9.59D-06    CP:  1.01D+00  4.87D-01  9.09D-01  9.53D-01  8.13D-01
                    CP:  1.05D+00
 E= -1914.16183311913     Delta-E=       -0.000004057912 Rises=F Damp=F
 DIIS: error= 2.50D-05 at cycle   7 NSaved=   7.
 NSaved= 7 IEnMin= 7 EnMin= -1914.16183311913     IErMin= 7 ErrMin= 2.50D-05
 ErrMax= 2.50D-05  0.00D+00 EMaxC= 1.00D-01 BMatC= 1.12D-07 BMatP= 4.54D-06
 IDIUse=1 WtCom= 1.00D+00 WtEn= 0.00D+00
 Coeff-Com: -0.205D-03 0.973D-04-0.893D-03-0.644D-02 0.165D-01 0.249D+00
 Coeff-Com:  0.742D+00
 Coeff:     -0.205D-03 0.973D-04-0.893D-03-0.644D-02 0.165D-01 0.249D+00
 Coeff:      0.742D+00
 Gap=     0.206 Goal=   None    Shift=    0.000
 RMSDP=3.14D-06 MaxDP=5.11D-05 DE=-4.06D-06 OVMax= 1.02D-04

 Cycle   8  Pass 1  IDiag  1:
 RMSU=  2.22D-06    CP:  1.01D+00  4.87D-01  9.09D-01  9.54D-01  8.17D-01
                    CP:  1.05D+00  9.00D-01
 E= -1914.16183331309     Delta-E=       -0.000000193961 Rises=F Damp=F
 DIIS: error= 4.02D-06 at cycle   8 NSaved=   8.
 NSaved= 8 IEnMin= 8 EnMin= -1914.16183331309     IErMin= 8 ErrMin= 4.02D-06
 ErrMax= 4.02D-06  0.00D+00 EMaxC= 1.00D-01 BMatC= 6.38D-09 BMatP= 1.12D-07
 IDIUse=1 WtCom= 1.00D+00 WtEn= 0.00D+00
 Coeff-Com: -0.661D-06 0.670D-04-0.473D-03-0.174D-02-0.238D-02-0.710D-02
 Coeff-Com:  0.991D-01 0.913D+00
 Coeff:     -0.661D-06 0.670D-04-0.473D-03-0.174D-02-0.238D-02-0.710D-02
 Coeff:      0.991D-01 0.913D+00
 Gap=     0.206 Goal=   None    Shift=    0.000
 RMSDP=7.85D-07 MaxDP=2.07D-05 DE=-1.94D-07 OVMax= 2.19D-05

 Cycle   9  Pass 1  IDiag  1:
 RMSU=  2.49D-07    CP:  1.01D+00  4.87D-01  9.09D-01  9.54D-01  8.18D-01
                    CP:  1.05D+00  9.41D-01  1.05D+00
 E= -1914.16183332084     Delta-E=       -0.000000007754 Rises=F Damp=F
 DIIS: error= 5.86D-07 at cycle   9 NSaved=   9.
 NSaved= 9 IEnMin= 9 EnMin= -1914.16183332084     IErMin= 9 ErrMin= 5.86D-07
 ErrMax= 5.86D-07  0.00D+00 EMaxC= 1.00D-01 BMatC= 1.51D-10 BMatP= 6.38D-09
 IDIUse=1 WtCom= 1.00D+00 WtEn= 0.00D+00
 Coeff-Com:  0.104D-04-0.292D-05-0.162D-04-0.289D-04-0.507D-03-0.456D-02
 Coeff-Com: -0.105D-01 0.660D-01 0.950D+00
 Coeff:      0.104D-04-0.292D-05-0.162D-04-0.289D-04-0.507D-03-0.456D-02
 Coeff:     -0.105D-01 0.660D-01 0.950D+00
 Gap=     0.206 Goal=   None    Shift=    0.000
 RMSDP=1.10D-07 MaxDP=2.81D-06 DE=-7.75D-09 OVMax= 3.82D-06

 Cycle  10  Pass 1  IDiag  1:
 RMSU=  4.63D-08    CP:  1.01D+00  4.87D-01  9.09D-01  9.54D-01  8.18D-01
                    CP:  1.06D+00  9.44D-01  1.06D+00  9.67D-01
 E= -1914.16183332102     Delta-E=       -0.000000000180 Rises=F Damp=F
 DIIS: error= 1.42D-07 at cycle  10 NSaved=  10.
 NSaved=10 IEnMin=10 EnMin= -1914.16183332102     IErMin=10 ErrMin= 1.42D-07
 ErrMax= 1.42D-07  0.00D+00 EMaxC= 1.00D-01 BMatC= 5.01D-12 BMatP= 1.51D-10
 IDIUse=1 WtCom= 1.00D+00 WtEn= 0.00D+00
 Coeff-Com: -0.917D-06 0.479D-06 0.933D-05 0.372D-04 0.568D-04 0.213D-03
 Coeff-Com: -0.885D-03-0.127D-01 0.194D-01 0.994D+00
 Coeff:     -0.917D-06 0.479D-06 0.933D-05 0.372D-04 0.568D-04 0.213D-03
 Coeff:     -0.885D-03-0.127D-01 0.194D-01 0.994D+00
 Gap=     0.206 Goal=   None    Shift=    0.000
 RMSDP=1.49D-08 MaxDP=4.68D-07 DE=-1.80D-10 OVMax= 8.21D-07

 Cycle  11  Pass 1  IDiag  1:
 RMSU=  4.72D-09    CP:  1.01D+00  4.87D-01  9.09D-01  9.54D-01  8.18D-01
                    CP:  1.06D+00  9.44D-01  1.06D+00  9.82D-01  1.06D+00
 E= -1914.16183332101     Delta-E=        0.000000000015 Rises=F Damp=F
 DIIS: error= 1.03D-08 at cycle  11 NSaved=  11.
 NSaved=11 IEnMin=10 EnMin= -1914.16183332102     IErMin=11 ErrMin= 1.03D-08
 ErrMax= 1.03D-08  0.00D+00 EMaxC= 1.00D-01 BMatC= 2.84D-14 BMatP= 5.01D-12
 IDIUse=1 WtCom= 1.00D+00 WtEn= 0.00D+00
 Coeff-Com: -0.623D-07-0.745D-07 0.191D-06 0.123D-06 0.552D-05 0.348D-04
 Coeff-Com: -0.876D-04-0.214D-02-0.106D-01-0.107D-01 0.102D+01
 Coeff:     -0.623D-07-0.745D-07 0.191D-06 0.123D-06 0.552D-05 0.348D-04
 Coeff:     -0.876D-04-0.214D-02-0.106D-01-0.107D-01 0.102D+01
 Gap=     0.206 Goal=   None    Shift=    0.000
 RMSDP=2.01D-09 MaxDP=5.21D-08 DE= 1.50D-11 OVMax= 7.19D-08

 SCF Done:  E(RPBE1PBE) =  -1914.16183332     A.U. after   11 cycles
            NFock= 11  Conv=0.20D-08     -V/T= 2.2338
 KE= 1.551419212227D+03 PE=-7.026618392858D+03 EE= 2.227565887896D+03
 Leave Link  502 at Mon Aug 16 12:07:56 2021, MaxMem=   268435456 cpu:              27.1 elap:               6.8
 (Enter /home/zhangjx/ssd/softwares/g16/l601.exe)
 Copying SCF densities to generalized density rwf, IOpCl= 0 IROHF=0.

 **********************************************************************

            Population analysis using the SCF density.

 **********************************************************************

 Orbital symmetries:
       Occupied  (T2) (T2) (T2) (A1) (T2) (T2) (T2) (A1) (T1) (T1)
                 (T1) (E) (E) (T2) (T2) (T2) (T2) (T2) (T2) (A1)
                 (A1) (T2) (T2) (T2) (A1) (T2) (T2) (T2) (E) (E)
                 (T2) (T2) (T2) (T1) (T1) (T1) (A1) (T2) (T2) (T2)
                 (T2) (T2) (T2) (E) (E) (T1) (T1) (T1) (A1) (T2)
                 (T2) (T2) (T2) (T2) (T2) (E) (E) (T2) (T2) (T2)
                 (A1) (T1) (T1) (T1) (E) (E) (T1) (T1) (T1) (T2)
                 (T2) (T2) (A1)
       Virtual   (T2) (T2) (T2) (E) (E) (T2) (T2) (T2) (A1) (T1)
                 (T1) (T1) (T2) (T2) (T2) (T2) (T2) (T2) (E) (E)
                 (A1) (T1) (T1) (T1) (T2) (T2) (T2) (A1) (T2) (T2)
                 (T2) (T2) (T2) (T2) (E) (E) (T1) (T1) (T1) (T2)
                 (T2) (T2) (A1) (T2) (T2) (T2) (E) (E) (A1) (T1)
                 (T1) (T1) (T2) (T2) (T2) (T2) (T2) (T2) (A1) (E)
                 (E) (T1) (T1) (T1) (T2) (T2) (T2) (T2) (T2) (T2)
                 (E) (E) (T1) (T1) (T1) (A1) (E) (E) (T2) (T2)
                 (T2) (T1) (T1) (T1) (T2) (T2) (T2) (A1) (T2) (T2)
                 (T2) (E) (E) (T1) (T1) (T1) (T2) (T2) (T2) (E)
                 (E) (T1) (T1) (T1) (T2) (T2) (T2) (T2) (T2) (T2)
                 (A2) (T1) (T1) (T1) (A1) (E) (E) (T2) (T2) (T2)
                 (T1) (T1) (T1) (T2) (T2) (T2) (A2) (A1) (T2) (T2)
                 (T2) (T1) (T1) (T1) (E) (E) (T1) (T1) (T1) (E)
                 (E) (T2) (T2) (T2) (T2) (T2) (T2) (A1) (T1) (T1)
                 (T1) (T2) (T2) (T2) (A1) (E) (E) (T2) (T2) (T2)
                 (T1) (T1) (T1) (A1) (T2) (T2) (T2) (A1) (E) (E)
                 (T1) (T1) (T1) (T2) (T2) (T2) (T2) (T2) (T2) (A1)
                 (T2) (T2) (T2) (A1) (T2) (T2) (T2)
 The electronic state is 1-A1.
 Alpha  occ. eigenvalues --  -77.47054 -77.47054 -77.47054 -77.47053  -6.88846
 Alpha  occ. eigenvalues --   -6.88846  -6.88846  -6.88845  -5.02786  -5.02786
 Alpha  occ. eigenvalues --   -5.02786  -5.02786  -5.02786  -5.02786  -5.02786
 Alpha  occ. eigenvalues --   -5.02786  -5.02591  -5.02591  -5.02591  -5.02590
 Alpha  occ. eigenvalues --   -4.43653  -4.43638  -4.43638  -4.43638  -2.61535
 Alpha  occ. eigenvalues --   -2.61197  -2.61197  -2.61197  -2.59880  -2.59880
 Alpha  occ. eigenvalues --   -2.59849  -2.59849  -2.59849  -2.59749  -2.59749
 Alpha  occ. eigenvalues --   -2.59749  -0.95072  -0.95011  -0.95011  -0.95011
 Alpha  occ. eigenvalues --   -0.69529  -0.69529  -0.69529  -0.69495  -0.69495
 Alpha  occ. eigenvalues --   -0.69428  -0.69428  -0.69428  -0.69289  -0.63916
 Alpha  occ. eigenvalues --   -0.63916  -0.63916  -0.60156  -0.60156  -0.60156
 Alpha  occ. eigenvalues --   -0.59729  -0.59729  -0.57545  -0.57545  -0.57545
 Alpha  occ. eigenvalues --   -0.55880  -0.55342  -0.55342  -0.55342  -0.55251
 Alpha  occ. eigenvalues --   -0.55251  -0.53742  -0.53742  -0.53742  -0.51269
 Alpha  occ. eigenvalues --   -0.51269  -0.51269  -0.49932
 Alpha virt. eigenvalues --   -0.29364  -0.29364  -0.29364  -0.22506  -0.22506
 Alpha virt. eigenvalues --   -0.18412  -0.18412  -0.18412  -0.18189  -0.17553
 Alpha virt. eigenvalues --   -0.17553  -0.17553  -0.16885  -0.16885  -0.16885
 Alpha virt. eigenvalues --   -0.14284  -0.14284  -0.14284  -0.13458  -0.13458
 Alpha virt. eigenvalues --   -0.09884  -0.09480  -0.09480  -0.09480  -0.03361
 Alpha virt. eigenvalues --   -0.03361  -0.03361  -0.00300   0.03063   0.03063
 Alpha virt. eigenvalues --    0.03063   0.10503   0.10503   0.10503   0.11063
 Alpha virt. eigenvalues --    0.11063   0.12405   0.12405   0.12405   0.15043
 Alpha virt. eigenvalues --    0.15043   0.15043   0.16084   0.18510   0.18510
 Alpha virt. eigenvalues --    0.18510   0.19286   0.19286   0.20706   0.21903
 Alpha virt. eigenvalues --    0.21903   0.21903   0.24049   0.24049   0.24049
 Alpha virt. eigenvalues --    0.28209   0.28209   0.28209   0.31182   0.33766
 Alpha virt. eigenvalues --    0.33766   0.35395   0.35395   0.35395   0.35570
 Alpha virt. eigenvalues --    0.35570   0.35570   0.44773   0.44773   0.44773
 Alpha virt. eigenvalues --    0.45316   0.45316   0.45899   0.45899   0.45899
 Alpha virt. eigenvalues --    0.46526   0.46604   0.46604   0.50053   0.50053
 Alpha virt. eigenvalues --    0.50053   0.51018   0.51018   0.51018   0.56319
 Alpha virt. eigenvalues --    0.56319   0.56319   0.62680   0.62809   0.62809
 Alpha virt. eigenvalues --    0.62809   0.69601   0.69601   0.80851   0.80851
 Alpha virt. eigenvalues --    0.80851   0.82297   0.82297   0.82297   0.83527
 Alpha virt. eigenvalues --    0.83527   0.87230   0.87230   0.87230   0.93196
 Alpha virt. eigenvalues --    0.93196   0.93196   1.02154   1.02154   1.02154
 Alpha virt. eigenvalues --    1.10142   1.10143   1.10143   1.10143   1.11817
 Alpha virt. eigenvalues --    1.22272   1.22272   1.24449   1.24449   1.24449
 Alpha virt. eigenvalues --    1.26031   1.26031   1.26031   1.30787   1.30787
 Alpha virt. eigenvalues --    1.30787   1.33478   1.34276   1.34508   1.34508
 Alpha virt. eigenvalues --    1.34508   1.34608   1.34608   1.34608   1.36434
 Alpha virt. eigenvalues --    1.36434   1.36568   1.36568   1.36568   1.36843
 Alpha virt. eigenvalues --    1.36843   1.38829   1.38829   1.38829   1.41051
 Alpha virt. eigenvalues --    1.41051   1.41051   1.45046   1.45439   1.45439
 Alpha virt. eigenvalues --    1.45439   1.49553   1.49553   1.49553   1.50506
 Alpha virt. eigenvalues --    1.56932   1.56932   1.57132   1.57132   1.57132
 Alpha virt. eigenvalues --    1.57949   1.57949   1.57949   1.84277   1.92786
 Alpha virt. eigenvalues --    1.92786   1.92786   1.99226   2.12441   2.12441
 Alpha virt. eigenvalues --    2.12706   2.12706   2.12706   2.12823   2.12823
 Alpha virt. eigenvalues --    2.12823   2.17105   2.17105   2.17105  42.51298
 Alpha virt. eigenvalues --   42.74178  42.74178  42.74178 202.32219 202.43498
 Alpha virt. eigenvalues --  202.43498 202.43498
          Condensed to atoms (all electrons):
               1          2          3          4          5          6
     1  Au  18.695122   0.020501   0.020501   0.020501   0.274144  -0.011802
     2  Au   0.020501  18.695122   0.020501   0.020501  -0.017268   0.001170
     3  Au   0.020501   0.020501  18.695122   0.020501  -0.017268   0.001170
     4  Au   0.020501   0.020501   0.020501  18.695122  -0.017268   0.000041
     5  P    0.274144  -0.017268  -0.017268  -0.017268  13.538789   0.367951
     6  H   -0.011802   0.001170   0.001170   0.000041   0.367951   0.551581
     7  H   -0.011802   0.000041   0.001170   0.001170   0.367951  -0.007684
     8  H   -0.011802   0.001170   0.000041   0.001170   0.367951  -0.007684
     9  P   -0.017268   0.274144  -0.017268  -0.017268   0.000036  -0.000002
    10  H    0.000041  -0.011802   0.001170   0.001170  -0.000000   0.000000
    11  H    0.001170  -0.011802   0.001170   0.000041  -0.000002   0.000000
    12  H    0.001170  -0.011802   0.000041   0.001170  -0.000002   0.000000
    13  P   -0.017268  -0.017268   0.274144  -0.017268   0.000036  -0.000002
    14  H    0.001170   0.001170  -0.011802   0.000041  -0.000002   0.000000
    15  H    0.000041   0.001170  -0.011802   0.001170  -0.000000   0.000000
    16  H    0.001170   0.000041  -0.011802   0.001170  -0.000002   0.000000
    17  P   -0.017268  -0.017268  -0.017268   0.274144   0.000036  -0.000000
    18  H    0.001170   0.000041   0.001170  -0.011802  -0.000002   0.000000
    19  H    0.000041   0.001170   0.001170  -0.011802  -0.000000   0.000000
    20  H    0.001170   0.001170   0.000041  -0.011802  -0.000002   0.000000
               7          8          9         10         11         12
     1  Au  -0.011802  -0.011802  -0.017268   0.000041   0.001170   0.001170
     2  Au   0.000041   0.001170   0.274144  -0.011802  -0.011802  -0.011802
     3  Au   0.001170   0.000041  -0.017268   0.001170   0.001170   0.000041
     4  Au   0.001170   0.001170  -0.017268   0.001170   0.000041   0.001170
     5  P    0.367951   0.367951   0.000036  -0.000000  -0.000002  -0.000002
     6  H   -0.007684  -0.007684  -0.000002   0.000000   0.000000   0.000000
     7  H    0.551581  -0.007684  -0.000000   0.000000   0.000000   0.000000
     8  H   -0.007684   0.551581  -0.000002   0.000000   0.000000   0.000000
     9  P   -0.000000  -0.000002  13.538789   0.367951   0.367951   0.367951
    10  H    0.000000   0.000000   0.367951   0.551581  -0.007684  -0.007684
    11  H    0.000000   0.000000   0.367951  -0.007684   0.551581  -0.007684
    12  H    0.000000   0.000000   0.367951  -0.007684  -0.007684   0.551581
    13  P   -0.000002  -0.000000   0.000036  -0.000002  -0.000002  -0.000000
    14  H    0.000000   0.000000  -0.000002   0.000000   0.000000   0.000000
    15  H    0.000000   0.000000  -0.000002   0.000000   0.000000   0.000000
    16  H    0.000000   0.000000  -0.000000   0.000000   0.000000   0.000000
    17  P   -0.000002  -0.000002   0.000036  -0.000002  -0.000000  -0.000002
    18  H    0.000000   0.000000  -0.000000   0.000000   0.000000   0.000000
    19  H    0.000000   0.000000  -0.000002   0.000000   0.000000   0.000000
    20  H    0.000000   0.000000  -0.000002   0.000000   0.000000   0.000000
              13         14         15         16         17         18
     1  Au  -0.017268   0.001170   0.000041   0.001170  -0.017268   0.001170
     2  Au  -0.017268   0.001170   0.001170   0.000041  -0.017268   0.000041
     3  Au   0.274144  -0.011802  -0.011802  -0.011802  -0.017268   0.001170
     4  Au  -0.017268   0.000041   0.001170   0.001170   0.274144  -0.011802
     5  P    0.000036  -0.000002  -0.000000  -0.000002   0.000036  -0.000002
     6  H   -0.000002   0.000000   0.000000   0.000000  -0.000000   0.000000
     7  H   -0.000002   0.000000   0.000000   0.000000  -0.000002   0.000000
     8  H   -0.000000   0.000000   0.000000   0.000000  -0.000002   0.000000
     9  P    0.000036  -0.000002  -0.000002  -0.000000   0.000036  -0.000000
    10  H   -0.000002   0.000000   0.000000   0.000000  -0.000002   0.000000
    11  H   -0.000002   0.000000   0.000000   0.000000  -0.000000   0.000000
    12  H   -0.000000   0.000000   0.000000   0.000000  -0.000002   0.000000
    13  P   13.538789   0.367951   0.367951   0.367951   0.000036  -0.000002
    14  H    0.367951   0.551581  -0.007684  -0.007684  -0.000000   0.000000
    15  H    0.367951  -0.007684   0.551581  -0.007684  -0.000002   0.000000
    16  H    0.367951  -0.007684  -0.007684   0.551581  -0.000002   0.000000
    17  P    0.000036  -0.000000  -0.000002  -0.000002  13.538789   0.367951
    18  H   -0.000002   0.000000   0.000000   0.000000   0.367951   0.551581
    19  H   -0.000002   0.000000   0.000000   0.000000   0.367951  -0.007684
    20  H   -0.000000   0.000000   0.000000   0.000000   0.367951  -0.007684
              19         20
     1  Au   0.000041   0.001170
     2  Au   0.001170   0.001170
     3  Au   0.001170   0.000041
     4  Au  -0.011802  -0.011802
     5  P   -0.000000  -0.000002
     6  H    0.000000   0.000000
     7  H    0.000000   0.000000
     8  H    0.000000   0.000000
     9  P   -0.000002  -0.000002
    10  H    0.000000   0.000000
    11  H    0.000000   0.000000
    12  H    0.000000   0.000000
    13  P   -0.000002  -0.000000
    14  H    0.000000   0.000000
    15  H    0.000000   0.000000
    16  H    0.000000   0.000000
    17  P    0.367951   0.367951
    18  H   -0.007684  -0.007684
    19  H    0.551581  -0.007684
    20  H   -0.007684   0.551581
 Mulliken charges:
               1
     1  Au   0.049297
     2  Au   0.049297
     3  Au   0.049297
     4  Au   0.049297
     5  P    0.134924
     6  H    0.105260
     7  H    0.105260
     8  H    0.105260
     9  P    0.134924
    10  H    0.105260
    11  H    0.105260
    12  H    0.105260
    13  P    0.134924
    14  H    0.105260
    15  H    0.105260
    16  H    0.105260
    17  P    0.134924
    18  H    0.105260
    19  H    0.105260
    20  H    0.105260
 Sum of Mulliken charges =   2.00000
 Mulliken charges with hydrogens summed into heavy atoms:
               1
     1  Au   0.049297
     2  Au   0.049297
     3  Au   0.049297
     4  Au   0.049297
     5  P    0.450703
     9  P    0.450703
    13  P    0.450703
    17  P    0.450703
 Electronic spatial extent (au):  <R**2>=           5716.7705
 Charge=              2.0000 electrons
 Dipole moment (field-independent basis, Debye):
    X=              0.0000    Y=              0.0000    Z=             -0.0000  Tot=              0.0000
 Quadrupole moment (field-independent basis, Debye-Ang):
   XX=            -73.5391   YY=            -73.5391   ZZ=            -73.5391
   XY=              0.0000   XZ=              0.0000   YZ=              0.0000
 Traceless Quadrupole moment (field-independent basis, Debye-Ang):
   XX=             -0.0000   YY=             -0.0000   ZZ=              0.0000
   XY=              0.0000   XZ=              0.0000   YZ=              0.0000
 Octapole moment (field-independent basis, Debye-Ang**2):
  XXX=             -0.0000  YYY=              0.0000  ZZZ=              0.0000  XYY=             -0.0000
  XXY=              0.0000  XXZ=              0.0000  XZZ=             -0.0000  YZZ=             -0.0000
  YYZ=             -0.0000  XYZ=            155.3857
 Hexadecapole moment (field-independent basis, Debye-Ang**3):
 XXXX=          -2067.6807 YYYY=          -2067.6807 ZZZZ=          -2067.6807 XXXY=              0.0000
 XXXZ=             -0.0000 YYYX=              0.0000 YYYZ=             -0.0000 ZZZX=             -0.0000
 ZZZY=             -0.0000 XXYY=           -432.8042 XXZZ=           -432.8042 YYZZ=           -432.8042
 XXYZ=             -0.0000 YYXZ=             -0.0000 ZZXY=             -0.0000
 N-N= 1.333471459413D+03 E-N=-7.026618388266D+03  KE= 1.551419212227D+03
 Symmetry A    KE= 3.886567983452D+02
 Symmetry B1   KE= 3.875874712941D+02
 Symmetry B2   KE= 3.875874712941D+02
 Symmetry B3   KE= 3.875874712941D+02
 No NMR shielding tensors so no spin-rotation constants.
 Leave Link  601 at Mon Aug 16 12:07:56 2021, MaxMem=   268435456 cpu:               0.4 elap:               0.1
 (Enter /home/zhangjx/ssd/softwares/g16/l701.exe)
 ... and contract with generalized density number  0.
 Compute integral first derivatives.
  24 Symmetry operations used in ECPInt.
 ECPInt:  NShTT=    6786 NPrTT=   21916 LenC2=    6053 LenP2D=   14036.
 LDataN:  DoStor=T MaxTD1= 8 Len=  415
 Leave Link  701 at Mon Aug 16 12:07:57 2021, MaxMem=   268435456 cpu:               3.5 elap:               0.9
 (Enter /home/zhangjx/ssd/softwares/g16/l702.exe)
 L702 exits ... SP integral derivatives will be done elsewhere.
 Leave Link  702 at Mon Aug 16 12:07:57 2021, MaxMem=   268435456 cpu:               0.0 elap:               0.0
 (Enter /home/zhangjx/ssd/softwares/g16/l703.exe)
 Integral derivatives from FoFJK, PRISM(SPDF).
 Compute integral first derivatives, UseDBF=F ICtDFT=           0.
 Calling FoFJK, ICntrl=      2127 FMM=F ISym2X=1 I1Cent= 0 IOpClX= 0 NMat=1 NMatS=1 NMatT=0.
 FoFJK:  IHMeth= 1 ICntrl=    2127 DoSepK=F KAlg= 0 I1Cent=           0 FoldK=F
 IRaf=         0 NMat=       1 IRICut=       1 DoRegI=T DoRafI=F ISym2E= 1 IDoP0=0 IntGTp=1.
 FoFCou: FMM=F IPFlag=           0 FMFlag=      100000 FMFlg1=         800
         NFxFlg=           0 DoJE=F BraDBF=F KetDBF=F FulRan=T
         wScrn=  0.000000 ICntrl=      2127 IOpCl=  0 I1Cent=           0 NGrid=           0
         NMat0=    1 NMatS0=      1 NMatT0=    0 NMatD0=    1 NMtDS0=    0 NMtDT0=    0
 Petite list used in FoFCou.
 Defaulting to unpruned grid for atomic number  79.
 Defaulting to unpruned grid for atomic number  79.
 Defaulting to unpruned grid for atomic number  79.
 Defaulting to unpruned grid for atomic number  79.
 Leave Link  703 at Mon Aug 16 12:07:59 2021, MaxMem=   268435456 cpu:               7.3 elap:               1.8
 (Enter /home/zhangjx/ssd/softwares/g16/l716.exe)
 Dipole        =-1.33226763D-14 0.00000000D+00-7.54951657D-15
 ***** Axes restored to original set *****
 -------------------------------------------------------------------
 Center     Atomic                   Forces (Hartrees/Bohr)
 Number     Number              X              Y              Z
 -------------------------------------------------------------------
      1       79          -0.000000000   -0.000000000   -0.008176120
      2       79           0.000000000    0.007708520    0.002725373
      3       79          -0.006675774   -0.003854260    0.002725373
      4       79           0.006675774   -0.003854260    0.002725373
      5       15          -0.000000000   -0.000000000   -0.079961574
      6        1           0.037517635   -0.021660817    0.024004657
      7        1           0.000000000    0.043321634    0.024004657
      8        1          -0.037517635   -0.021660817    0.024004658
      9       15           0.000000000    0.075388495    0.026653858
     10        1          -0.000000000   -0.008191264   -0.048845580
     11        1           0.037517635   -0.029852080    0.012420462
     12        1          -0.037517635   -0.029852080    0.012420462
     13       15          -0.065288352   -0.037694248    0.026653858
     14        1           0.044611478   -0.017565185    0.012420462
     15        1           0.007093842    0.004095632   -0.048845581
     16        1           0.007093842    0.047417266    0.012420461
     17       15           0.065288352   -0.037694248    0.026653858
     18        1          -0.007093842    0.047417266    0.012420461
     19        1          -0.007093842    0.004095632   -0.048845581
     20        1          -0.044611478   -0.017565185    0.012420462
 -------------------------------------------------------------------
 Cartesian Forces:  Max     0.079961574 RMS     0.030353105
 Leave Link  716 at Mon Aug 16 12:07:59 2021, MaxMem=   268435456 cpu:               0.1 elap:               0.0
 (Enter /home/zhangjx/ssd/softwares/g16/l103.exe)

 GradGradGradGradGradGradGradGradGradGradGradGradGradGradGradGradGradGrad
 Berny optimization.
 FormGI is forming the generalized inverse of G from B-inverse, IUseBI=4.
 Internal  Forces:  Max     0.048906815 RMS     0.017738422
 Search for a local minimum.
 Step number   1 out of a maximum of  110
 All quantities printed in internal units (Hartrees-Bohrs-Radians)
 RMS Force = .17738D-01 SwitMx=.10000D-02 MixMth= 1
 Mixed Optimization -- RFO/linear search
 Second derivative matrix not updated -- first step.
 ITU=  0
     Eigenvalues ---    0.00230   0.00230   0.00230   0.00230   0.01246
     Eigenvalues ---    0.01246   0.02482   0.02482   0.02482   0.03444
     Eigenvalues ---    0.03444   0.03444   0.05634   0.05634   0.05634
     Eigenvalues ---    0.05634   0.05634   0.05634   0.05634   0.05634
     Eigenvalues ---    0.06556   0.07917   0.07917   0.07917   0.09417
     Eigenvalues ---    0.09417   0.16000   0.16000   0.16000   0.16000
     Eigenvalues ---    0.16000   0.16000   0.16000   0.16000   0.16000
     Eigenvalues ---    0.16000   0.16000   0.16000   0.16330   0.16330
     Eigenvalues ---    0.16330   0.16330   0.27964   0.27964   0.27964
     Eigenvalues ---    0.27964   0.27964   0.27964   0.27964   0.27964
     Eigenvalues ---    0.27964   0.27964   0.27964   0.27964
 RFO step:  Lambda=-8.94593528D-02 EMin= 2.30000000D-03
 Linear search not attempted -- first point.
 Maximum step size (   0.300) exceeded in Quadratic search.
    -- Step size scaled by   0.587
 Iteration  1 RMS(Cart)=  0.02548793 RMS(Int)=  0.00030565
 Iteration  2 RMS(Cart)=  0.00042992 RMS(Int)=  0.00012372
 Iteration  3 RMS(Cart)=  0.00000025 RMS(Int)=  0.00012372
 ITry= 1 IFail=0 DXMaxC= 6.86D-02 DCOld= 1.00D+10 DXMaxT= 3.00D-01 DXLimC= 3.00D+00 Rises=F
 ClnCor:  largest displacement from symmetrization is 2.06D-08 for atom    14.
 Variable       Old X    -DE/DX   Delta X   Delta X   Delta X     New X
                                 (Linear)    (Quad)   (Total)
    R1        5.47939  -0.00658   0.00000  -0.02490  -0.02490   5.45449
    R2        5.47939  -0.00658   0.00000  -0.02490  -0.02490   5.45449
    R3        5.47939  -0.00658   0.00000  -0.02490  -0.02490   5.45449
    R4        4.51645  -0.00795   0.00000  -0.01844  -0.01844   4.49800
    R5        5.47939  -0.00658   0.00000  -0.02490  -0.02490   5.45449
    R6        5.47939  -0.00658   0.00000  -0.02490  -0.02490   5.45449
    R7        4.51645  -0.00795   0.00000  -0.01844  -0.01844   4.49800
    R8        5.47939  -0.00658   0.00000  -0.02490  -0.02490   5.45449
    R9        4.51645  -0.00795   0.00000  -0.01844  -0.01844   4.49800
   R10        4.51645  -0.00795   0.00000  -0.01844  -0.01844   4.49800
   R11        2.49717   0.04891   0.00000   0.07772   0.07772   2.57488
   R12        2.49717   0.04891   0.00000   0.07772   0.07772   2.57488
   R13        2.49717   0.04891   0.00000   0.07772   0.07772   2.57488
   R14        2.49717   0.04891   0.00000   0.07772   0.07772   2.57488
   R15        2.49717   0.04891   0.00000   0.07772   0.07772   2.57488
   R16        2.49717   0.04891   0.00000   0.07772   0.07772   2.57488
   R17        2.49717   0.04891   0.00000   0.07772   0.07772   2.57488
   R18        2.49717   0.04891   0.00000   0.07772   0.07772   2.57488
   R19        2.49717   0.04891   0.00000   0.07772   0.07772   2.57488
   R20        2.49717   0.04891   0.00000   0.07772   0.07772   2.57488
   R21        2.49717   0.04891   0.00000   0.07772   0.07772   2.57488
   R22        2.49717   0.04891   0.00000   0.07772   0.07772   2.57488
    A1        2.52611   0.00000   0.00000   0.00000   0.00000   2.52611
    A2        2.52611   0.00000   0.00000   0.00000   0.00000   2.52611
    A3        2.52611  -0.00000   0.00000  -0.00000  -0.00000   2.52611
    A4        2.52611  -0.00000   0.00000  -0.00000   0.00000   2.52611
    A5        2.52611  -0.00000   0.00000  -0.00000   0.00000   2.52611
    A6        2.52611   0.00000   0.00000   0.00000  -0.00000   2.52611
    A7        2.52611  -0.00000   0.00000  -0.00000   0.00000   2.52611
    A8        2.52611  -0.00000   0.00000  -0.00000  -0.00000   2.52611
    A9        2.52611   0.00000   0.00000   0.00000   0.00000   2.52611
   A10        2.52611  -0.00000   0.00000  -0.00000  -0.00000   2.52611
   A11        2.52611   0.00000   0.00000   0.00000   0.00000   2.52611
   A12        2.52611   0.00000   0.00000   0.00000   0.00000   2.52611
   A13        1.91828   0.00960   0.00000   0.02258   0.02232   1.94061
   A14        1.91828   0.00960   0.00000   0.02258   0.02232   1.94061
   A15        1.91828   0.00960   0.00000   0.02258   0.02232   1.94061
   A16        1.90292  -0.00976   0.00000  -0.02295  -0.02319   1.87973
   A17        1.90292  -0.00976   0.00000  -0.02295  -0.02319   1.87973
   A18        1.90292  -0.00976   0.00000  -0.02295  -0.02319   1.87973
   A19        1.91828   0.00960   0.00000   0.02258   0.02232   1.94061
   A20        1.91828   0.00960   0.00000   0.02258   0.02232   1.94061
   A21        1.91828   0.00960   0.00000   0.02258   0.02232   1.94061
   A22        1.90292  -0.00976   0.00000  -0.02295  -0.02319   1.87973
   A23        1.90292  -0.00976   0.00000  -0.02295  -0.02319   1.87973
   A24        1.90292  -0.00976   0.00000  -0.02295  -0.02319   1.87973
   A25        1.91828   0.00960   0.00000   0.02258   0.02232   1.94061
   A26        1.91828   0.00960   0.00000   0.02258   0.02232   1.94061
   A27        1.91828   0.00960   0.00000   0.02258   0.02232   1.94061
   A28        1.90292  -0.00976   0.00000  -0.02295  -0.02319   1.87973
   A29        1.90292  -0.00976   0.00000  -0.02295  -0.02319   1.87973
   A30        1.90292  -0.00976   0.00000  -0.02295  -0.02319   1.87973
   A31        1.91828   0.00960   0.00000   0.02258   0.02232   1.94061
   A32        1.91828   0.00960   0.00000   0.02258   0.02232   1.94061
   A33        1.91828   0.00960   0.00000   0.02258   0.02232   1.94061
   A34        1.90292  -0.00976   0.00000  -0.02295  -0.02319   1.87973
   A35        1.90292  -0.00976   0.00000  -0.02295  -0.02319   1.87973
   A36        1.90292  -0.00976   0.00000  -0.02295  -0.02319   1.87973
    D1        0.00000  -0.00000   0.00000  -0.00000  -0.00000   0.00000
    D2       -0.00000   0.00000   0.00000   0.00000   0.00000   0.00000
    D3       -0.00000   0.00000   0.00000   0.00000   0.00000   0.00000
    D4        1.04720  -0.00000   0.00000  -0.00000   0.00000   1.04720
    D5        3.14159  -0.00000   0.00000  -0.00000   0.00000   3.14159
    D6       -1.04720   0.00000   0.00000   0.00000   0.00000  -1.04720
    D7       -1.04720   0.00000   0.00000   0.00000  -0.00000  -1.04720
    D8        1.04720   0.00000   0.00000   0.00000  -0.00000   1.04720
    D9        3.14159   0.00000   0.00000   0.00000   0.00000   3.14159
   D10        3.14159  -0.00000   0.00000  -0.00000   0.00000   3.14159
   D11       -1.04720  -0.00000   0.00000  -0.00000  -0.00000  -1.04720
   D12        1.04720   0.00000   0.00000   0.00000   0.00000   1.04720
   D13        0.00000  -0.00000   0.00000  -0.00000   0.00000   0.00000
   D14       -0.00000   0.00000   0.00000   0.00000   0.00000   0.00000
   D15        3.14159   0.00000   0.00000   0.00000   0.00000   3.14159
   D16       -1.04720   0.00000   0.00000   0.00000   0.00000  -1.04720
   D17        1.04720  -0.00000   0.00000  -0.00000   0.00000   1.04720
   D18       -1.04720  -0.00000   0.00000  -0.00000   0.00000  -1.04720
   D19        1.04720  -0.00000   0.00000  -0.00000   0.00000   1.04720
   D20        3.14159  -0.00000   0.00000  -0.00000   0.00000   3.14159
   D21        1.04720   0.00000   0.00000   0.00000  -0.00000   1.04720
   D22       -3.14159   0.00000   0.00000   0.00000   0.00000  -3.14159
   D23       -1.04720  -0.00000   0.00000  -0.00000  -0.00000  -1.04720
   D24        0.00000  -0.00000   0.00000  -0.00000  -0.00000   0.00000
   D25        1.04720  -0.00000   0.00000  -0.00000  -0.00000   1.04720
   D26        3.14159  -0.00000   0.00000  -0.00000   0.00000   3.14159
   D27       -1.04720   0.00000   0.00000  -0.00000   0.00000  -1.04720
   D28       -1.04720   0.00000   0.00000   0.00000  -0.00000  -1.04720
   D29        1.04720   0.00000   0.00000   0.00000   0.00000   1.04720
   D30        3.14159   0.00000   0.00000   0.00000   0.00000   3.14159
   D31       -3.14159  -0.00000   0.00000  -0.00000  -0.00000  -3.14159
   D32       -1.04720  -0.00000   0.00000  -0.00000   0.00000  -1.04720
   D33        1.04720   0.00000   0.00000   0.00000   0.00000   1.04720
   D34        1.04720  -0.00000   0.00000  -0.00000   0.00000   1.04720
   D35        3.14159   0.00000   0.00000   0.00000   0.00000   3.14159
   D36       -1.04720   0.00000   0.00000   0.00000  -0.00000  -1.04720
   D37       -3.14159  -0.00000   0.00000  -0.00000  -0.00000  -3.14159
   D38       -1.04720   0.00000   0.00000   0.00000  -0.00000  -1.04720
   D39        1.04720   0.00000   0.00000   0.00000  -0.00000   1.04720
   D40       -1.04720  -0.00000   0.00000  -0.00000   0.00000  -1.04720
   D41        1.04720   0.00000   0.00000   0.00000   0.00000   1.04720
   D42        3.14159   0.00000   0.00000   0.00000   0.00000   3.14159
         Item               Value     Threshold  Converged?
 Maximum Force            0.048907     0.000450     NO 
 RMS     Force            0.017738     0.000300     NO 
 Maximum Displacement     0.068584     0.001800     NO 
 RMS     Displacement     0.025515     0.001200     NO 
 Predicted change in Energy=-4.110770D-02
 Lowest energy point so far.  Saving SCF results.
 GradGradGradGradGradGradGradGradGradGradGradGradGradGradGradGradGradGrad

 Leave Link  103 at Mon Aug 16 12:07:59 2021, MaxMem=   268435456 cpu:               0.0 elap:               0.0
 (Enter /home/zhangjx/ssd/softwares/g16/l202.exe)
                          Input orientation:                          
 ---------------------------------------------------------------------
 Center     Atomic      Atomic             Coordinates (Angstroms)
 Number     Number       Type             X           Y           Z
 ---------------------------------------------------------------------
      1         79           0        0.000000    0.000000    1.767546
      2         79           0       -0.000000   -1.666459   -0.589182
      3         79           0        1.443196    0.833229   -0.589182
      4         79           0       -1.443196    0.833229   -0.589182
      5         15           0        0.000000    0.000000    4.147787
      6          1           0        1.100246   -0.635227    4.640273
      7          1           0        0.000000    1.270455    4.640273
      8          1           0       -1.100246   -0.635227    4.640273
      9         15           0       -0.000000   -3.910571   -1.382596
     10          1           0       -0.000000   -3.951406   -2.744554
     11          1           0        1.100246   -4.586634   -0.947859
     12          1           0       -1.100246   -4.586634   -0.947859
     13         15           0        3.386654    1.955286   -1.382596
     14          1           0        4.522265    1.340476   -0.947859
     15          1           0        3.422018    1.975703   -2.744554
     16          1           0        3.422018    3.246158   -0.947859
     17         15           0       -3.386654    1.955286   -1.382596
     18          1           0       -3.422018    3.246158   -0.947859
     19          1           0       -3.422018    1.975703   -2.744554
     20          1           0       -4.522265    1.340476   -0.947859
 ---------------------------------------------------------------------
                    Distance matrix (angstroms):
                    1          2          3          4          5
     1  Au   0.000000
     2  Au   2.886391   0.000000
     3  Au   2.886391   2.886391   0.000000
     4  Au   2.886391   2.886391   2.886391   0.000000
     5  P    2.380241   5.021550   5.021550   5.021550   0.000000
     6  H    3.141117   5.442535   5.442535   5.997722   1.362570
     7  H    3.141117   5.997722   5.442535   5.442535   1.362570
     8  H    3.141117   5.442535   5.997722   5.442535   1.362570
     9  P    5.021550   2.380241   5.021550   5.021550   6.773308
    10  H    5.997722   3.141117   5.442535   5.442535   7.944683
    11  H    5.442535   3.141117   5.442535   5.997722   6.943585
    12  H    5.442535   3.141117   5.997722   5.442535   6.943585
    13  P    5.021550   5.021550   2.380241   5.021550   6.773308
    14  H    5.442535   5.442535   3.141117   5.997722   6.943585
    15  H    5.997722   5.442535   3.141117   5.442535   7.944683
    16  H    5.442535   5.997722   3.141117   5.442535   6.943585
    17  P    5.021550   5.021550   5.021550   2.380241   6.773308
    18  H    5.442535   5.997722   5.442535   3.141117   6.943585
    19  H    5.997722   5.442535   5.442535   3.141117   7.944683
    20  H    5.442535   5.442535   5.997722   3.141117   6.943585
                    6          7          8          9         10
     6  H    0.000000
     7  H    2.200493   0.000000
     8  H    2.200493   2.200493   0.000000
     9  P    6.943585   7.944683   6.943585   0.000000
    10  H    8.169655   9.044529   8.169655   1.362570   0.000000
    11  H    6.844037   8.169655   7.189089   1.362570   2.200493
    12  H    7.189089   8.169655   6.844037   1.362570   2.200493
    13  P    6.943585   6.943585   7.944683   6.773308   6.943585
    14  H    6.844037   7.189089   8.169655   6.943585   7.189089
    15  H    8.169655   8.169655   9.044529   6.943585   6.844037
    16  H    7.189089   6.844037   8.169655   7.944683   8.169655
    17  P    7.944683   6.943585   6.943585   6.773308   6.943585
    18  H    8.169655   6.844037   7.189089   7.944683   8.169655
    19  H    9.044529   8.169655   8.169655   6.943585   6.844037
    20  H    8.169655   7.189089   6.844037   6.943585   7.189089
                   11         12         13         14         15
    11  H    0.000000
    12  H    2.200493   0.000000
    13  P    6.943585   7.944683   0.000000
    14  H    6.844037   8.169655   1.362570   0.000000
    15  H    7.189089   8.169655   1.362570   2.200493   0.000000
    16  H    8.169655   9.044529   1.362570   2.200493   2.200493
    17  P    7.944683   6.943585   6.773308   7.944683   6.943585
    18  H    9.044529   8.169655   6.943585   8.169655   7.189089
    19  H    8.169655   7.189089   6.943585   8.169655   6.844037
    20  H    8.169655   6.844037   7.944683   9.044529   8.169655
                   16         17         18         19         20
    16  H    0.000000
    17  P    6.943585   0.000000
    18  H    6.844037   1.362570   0.000000
    19  H    7.189089   1.362570   2.200493   0.000000
    20  H    8.169655   1.362570   2.200493   2.200493   0.000000
 Stoichiometry    Au4H12P4(2+)
 Framework group  TD[4C3(.AuP),6SGD(H2)]
 Deg. of freedom     4
 Full point group                 TD      NOp  24
 RotChk:  IX=0 Diff= 4.74D-16
 Largest Abelian subgroup         D2      NOp   4
 Largest concise Abelian subgroup D2      NOp   4
                         Standard orientation:                         
 ---------------------------------------------------------------------
 Center     Atomic      Atomic             Coordinates (Angstroms)
 Number     Number       Type             X           Y           Z
 ---------------------------------------------------------------------
      1         79           0        1.020493    1.020493    1.020493
      2         79           0       -1.020493   -1.020493    1.020493
      3         79           0        1.020493   -1.020493   -1.020493
      4         79           0       -1.020493    1.020493   -1.020493
      5         15           0        2.394726    2.394726    2.394726
      6          1           0        3.197724    1.641741    3.197724
      7          1           0        3.197724    3.197724    1.641741
      8          1           0        1.641741    3.197724    3.197724
      9         15           0       -2.394726   -2.394726    2.394726
     10          1           0       -3.197724   -3.197724    1.641741
     11          1           0       -1.641741   -3.197724    3.197724
     12          1           0       -3.197724   -1.641741    3.197724
     13         15           0        2.394726   -2.394726   -2.394726
     14          1           0        3.197724   -3.197724   -1.641741
     15          1           0        1.641741   -3.197724   -3.197724
     16          1           0        3.197724   -1.641741   -3.197724
     17         15           0       -2.394726    2.394726   -2.394726
     18          1           0       -1.641741    3.197724   -3.197724
     19          1           0       -3.197724    1.641741   -3.197724
     20          1           0       -3.197724    3.197724   -1.641741
 ---------------------------------------------------------------------
 Rotational constants (GHZ):           0.1555681           0.1555681           0.1555681
 Leave Link  202 at Mon Aug 16 12:07:59 2021, MaxMem=   268435456 cpu:               0.0 elap:               0.0
 (Enter /home/zhangjx/ssd/softwares/g16/l301.exe)
 Standard basis: def2SVP (5D, 7F)
 Ernie: Thresh=  0.10000D-02 Tol=  0.10000D-05 Strict=F.
 There are    71 symmetry adapted cartesian basis functions of A   symmetry.
 There are    71 symmetry adapted cartesian basis functions of B1  symmetry.
 There are    71 symmetry adapted cartesian basis functions of B2  symmetry.
 There are    71 symmetry adapted cartesian basis functions of B3  symmetry.
 There are    65 symmetry adapted basis functions of A   symmetry.
 There are    65 symmetry adapted basis functions of B1  symmetry.
 There are    65 symmetry adapted basis functions of B2  symmetry.
 There are    65 symmetry adapted basis functions of B3  symmetry.
   260 basis functions,   492 primitive gaussians,   284 cartesian basis functions
    73 alpha electrons       73 beta electrons
       nuclear repulsion energy      1335.2227983286 Hartrees.
 IExCor= 1009 DFT=T Ex+Corr=PBE1PBE ExCW=0 ScaHFX=  0.250000
 ScaDFX=  0.750000  0.750000  1.000000  1.000000 ScalE2=  1.000000  1.000000
 IRadAn=      5 IRanWt=     -1 IRanGd=            0 ICorTp=0 IEmpDi=  4
 NAtoms=   20 NActive=   20 NUniq=    3 SFac= 4.00D+00 NAtFMM=   60 NAOKFM=F Big=F
 Integral buffers will be    131072 words long.
 Raffenetti 2 integral format.
 Two-electron integral symmetry is turned on.
 Leave Link  301 at Mon Aug 16 12:07:59 2021, MaxMem=   268435456 cpu:               0.1 elap:               0.0
 (Enter /home/zhangjx/ssd/softwares/g16/l302.exe)
 NPDir=0 NMtPBC=     1 NCelOv=     1 NCel=       1 NClECP=     1 NCelD=      1
         NCelK=      1 NCelE2=     1 NClLst=     1 CellRange=     0.0.
 One-electron integrals computed using PRISM.
 One-electron integral symmetry used in STVInt
  24 Symmetry operations used in ECPInt.
 ECPInt:  NShTT=    6786 NPrTT=   21916 LenC2=    6053 LenP2D=   14024.
 LDataN:  DoStor=T MaxTD1= 7 Len=  274
 NBasis=   260 RedAO= T EigKep=  1.67D-03  NBF=    65    65    65    65
 NBsUse=   260 1.00D-06 EigRej= -1.00D+00 NBFU=    65    65    65    65
 Precomputing XC quadrature grid using
 IXCGrd= 4 IRadAn=           5 IRanWt=          -1 IRanGd=           0 AccXCQ= 0.00D+00.
 Defaulting to unpruned grid for atomic number  79.
 Generated NRdTot=       0 NPtTot=           0 NUsed=           0 NTot=          32
 NSgBfM=   279   279   279   279   279 MxSgAt=    20 MxSgA2=    20.
 Leave Link  302 at Mon Aug 16 12:07:59 2021, MaxMem=   268435456 cpu:               1.3 elap:               0.3
 (Enter /home/zhangjx/ssd/softwares/g16/l303.exe)
 DipDrv:  MaxL=1.
 Leave Link  303 at Mon Aug 16 12:07:59 2021, MaxMem=   268435456 cpu:               0.1 elap:               0.0
 (Enter /home/zhangjx/ssd/softwares/g16/l401.exe)
 Initial guess from the checkpoint file:  "Au4L4-opt.chk"
 B after Tr=    -0.000000    0.000000    0.000000
         Rot=    1.000000    0.000000    0.000000   -0.000000 Ang=   0.00 deg.
 Guess basis will be translated and rotated to current coordinates.
 JPrj=2 DoOrth=T DoCkMO=T.
 Initial guess orbital symmetries:
       Occupied  (T2) (T2) (T2) (A1) (T2) (T2) (T2) (A1) (T1) (T1)
                 (T1) (E) (E) (T2) (T2) (T2) (T2) (T2) (T2) (A1)
                 (A1) (T2) (T2) (T2) (A1) (T2) (T2) (T2) (E) (E)
                 (T2) (T2) (T2) (T1) (T1) (T1) (A1) (T2) (T2) (T2)
                 (T2) (T2) (T2) (E) (E) (T1) (T1) (T1) (A1) (T2)
                 (T2) (T2) (T2) (T2) (T2) (E) (E) (T2) (T2) (T2)
                 (A1) (T1) (T1) (T1) (E) (E) (T1) (T1) (T1) (T2)
                 (T2) (T2) (A1)
       Virtual   (T2) (T2) (T2) (E) (E) (T2) (T2) (T2) (A1) (T1)
                 (T1) (T1) (T2) (T2) (T2) (T2) (T2) (T2) (E) (E)
                 (A1) (T1) (T1) (T1) (T2) (T2) (T2) (A1) (T2) (T2)
                 (T2) (T2) (T2) (T2) (E) (E) (T1) (T1) (T1) (T2)
                 (T2) (T2) (A1) (T2) (T2) (T2) (E) (E) (A1) (T1)
                 (T1) (T1) (T2) (T2) (T2) (T2) (T2) (T2) (A1) (E)
                 (E) (T1) (T1) (T1) (T2) (T2) (T2) (T2) (T2) (T2)
                 (E) (E) (T1) (T1) (T1) (A1) (E) (E) (T2) (T2)
                 (T2) (T1) (T1) (T1) (T2) (T2) (T2) (A1) (T2) (T2)
                 (T2) (E) (E) (T1) (T1) (T1) (T2) (T2) (T2) (E)
                 (E) (T1) (T1) (T1) (T2) (T2) (T2) (T2) (T2) (T2)
                 (A2) (T1) (T1) (T1) (A1) (E) (E) (T2) (T2) (T2)
                 (T1) (T1) (T1) (T2) (T2) (T2) (A2) (A1) (T2) (T2)
                 (T2) (T1) (T1) (T1) (E) (E) (T1) (T1) (T1) (E)
                 (E) (T2) (T2) (T2) (T2) (T2) (T2) (A1) (T1) (T1)
                 (T1) (T2) (T2) (T2) (A1) (E) (E) (T2) (T2) (T2)
                 (T1) (T1) (T1) (A1) (T2) (T2) (T2) (A1) (E) (E)
                 (T1) (T1) (T1) (T2) (T2) (T2) (T2) (T2) (T2) (A1)
                 (T2) (T2) (T2) (A1) (T2) (T2) (T2)
[...]
    10  H    8.218298   9.094596   8.218298   1.413757   0.000000
    11  H    6.893929   8.218298   7.236656   1.413757   2.200667
    12  H    7.236656   8.218298   6.893929   1.413757   2.200667
    13  P    6.899440   6.899440   7.884145   6.615032   6.899440
    14  H    6.893929   7.236656   8.218298   6.899440   7.236656
    15  H    8.218298   8.218298   9.094596   6.899440   6.893929
    16  H    7.236656   6.893929   8.218298   7.884145   8.218298
    17  P    7.884145   6.899440   6.899440   6.615032   6.899440
    18  H    8.218298   6.893929   7.236656   7.884145   8.218298
    19  H    9.094596   8.218298   8.218298   6.899440   6.893929
    20  H    8.218298   7.236656   6.893929   6.899440   7.236656
                   11         12         13         14         15
    11  H    0.000000
    12  H    2.200667   0.000000
    13  P    6.899440   7.884145   0.000000
    14  H    6.893929   8.218298   1.413757   0.000000
    15  H    7.236656   8.218298   1.413757   2.200667   0.000000
    16  H    8.218298   9.094596   1.413757   2.200667   2.200667
    17  P    7.884145   6.899440   6.615032   7.884145   6.899440
    18  H    9.094596   8.218298   6.899440   8.218298   7.236656
    19  H    8.218298   7.236656   6.899440   8.218298   6.893929
    20  H    8.218298   6.893929   7.884145   9.094596   8.218298
                   16         17         18         19         20
    16  H    0.000000
    17  P    6.899440   0.000000
    18  H    6.893929   1.413757   0.000000
    19  H    7.236656   1.413757   2.200667   0.000000
    20  H    8.218298   1.413757   2.200667   2.200667   0.000000
 Stoichiometry    Au4H12P4(2+)
 Framework group  TD[4C3(.AuP),6SGD(H2)]
 Deg. of freedom     4
 Full point group                 TD      NOp  24
 RotChk:  IX=0 Diff= 1.13D-15
 Largest Abelian subgroup         D2      NOp   4
 Largest concise Abelian subgroup D2      NOp   4
                         Standard orientation:                         
 ---------------------------------------------------------------------
 Center     Atomic      Atomic             Coordinates (Angstroms)
 Number     Number       Type             X           Y           Z
 ---------------------------------------------------------------------
      1         79           0        0.987805    0.987805    0.987805
      2         79           0       -0.987805   -0.987805    0.987805
      3         79           0        0.987805   -0.987805   -0.987805
      4         79           0       -0.987805    0.987805   -0.987805
      5         15           0        2.338767    2.338767    2.338767
      6          1           0        3.215425    1.659319    3.215425
      7          1           0        3.215425    3.215425    1.659319
      8          1           0        1.659319    3.215425    3.215425
      9         15           0       -2.338767   -2.338767    2.338767
     10          1           0       -3.215425   -3.215425    1.659319
     11          1           0       -1.659319   -3.215425    3.215425
     12          1           0       -3.215425   -1.659319    3.215425
     13         15           0        2.338767   -2.338767   -2.338767
     14          1           0        3.215425   -3.215425   -1.659319
     15          1           0        1.659319   -3.215425   -3.215425
     16          1           0        3.215425   -1.659319   -3.215425
     17         15           0       -2.338767    2.338767   -2.338767
     18          1           0       -1.659319    3.215425   -3.215425
     19          1           0       -3.215425    1.659319   -3.215425
     20          1           0       -3.215425    3.215425   -1.659319
 ---------------------------------------------------------------------
 Rotational constants (GHZ):           0.1639871           0.1639871           0.1639871
 Leave Link  202 at Mon Aug 16 12:08:35 2021, MaxMem=   268435456 cpu:               0.0 elap:               0.0
 (Enter /home/zhangjx/ssd/softwares/g16/l601.exe)
 Copying SCF densities to generalized density rwf, IOpCl= 0 IROHF=0.

 **********************************************************************

            Population analysis using the SCF density.

 **********************************************************************

 Orbital symmetries:
       Occupied  (T2) (T2) (T2) (A1) (T2) (T2) (T2) (A1) (T1) (T1)
                 (T1) (E) (E) (T2) (T2) (T2) (T2) (T2) (T2) (A1)
                 (A1) (T2) (T2) (T2) (A1) (T2) (T2) (T2) (E) (E)
                 (T2) (T2) (T2) (T1) (T1) (T1) (A1) (T2) (T2) (T2)
                 (A1) (T2) (T2) (T2) (E) (E) (T1) (T1) (T1) (T2)
                 (T2) (T2) (T2) (T2) (T2) (E) (E) (T2) (T2) (T2)
                 (A1) (T1) (T1) (T1) (E) (E) (T1) (T1) (T1) (T2)
                 (T2) (T2) (A1)
       Virtual   (T2) (T2) (T2) (E) (E) (T2) (T2) (T2) (T1) (T1)
                 (T1) (A1) (T2) (T2) (T2) (T2) (T2) (T2) (E) (E)
                 (A1) (T1) (T1) (T1) (T2) (T2) (T2) (A1) (T2) (T2)
                 (T2) (E) (E) (T2) (T2) (T2) (T1) (T1) (T1) (T2)
                 (T2) (T2) (A1) (A1) (E) (E) (T2) (T2) (T2) (T1)
                 (T1) (T1) (T2) (T2) (T2) (T2) (T2) (T2) (A1) (E)
                 (E) (T2) (T2) (T2) (T1) (T1) (T1) (A1) (T1) (T1)
                 (T1) (T2) (T2) (T2) (T2) (T2) (T2) (E) (E) (E)
                 (E) (T1) (T1) (T1) (T2) (T2) (T2) (T2) (T2) (T2)
                 (A1) (E) (E) (T2) (T2) (T2) (T1) (T1) (T1) (E)
                 (E) (T1) (T1) (T1) (T2) (T2) (T2) (T2) (T2) (T2)
                 (A1) (A2) (T1) (T1) (T1) (E) (E) (T2) (T2) (T2)
                 (T1) (T1) (T1) (T2) (T2) (T2) (A2) (A1) (E) (E)
                 (T1) (T1) (T1) (T2) (T2) (T2) (T1) (T1) (T1) (T2)
                 (T2) (T2) (E) (E) (T2) (T2) (T2) (A1) (T1) (T1)
                 (T1) (E) (E) (T2) (T2) (T2) (T1) (T1) (T1) (T2)
                 (T2) (T2) (A1) (A1) (T2) (T2) (T2) (A1) (E) (E)
                 (T2) (T2) (T2) (T1) (T1) (T1) (T2) (T2) (T2) (A1)
                 (T2) (T2) (T2) (A1) (T2) (T2) (T2)
 The electronic state is 1-A1.
 Alpha  occ. eigenvalues --  -77.48507 -77.48507 -77.48507 -77.48505  -6.89631
 Alpha  occ. eigenvalues --   -6.89631  -6.89631  -6.89630  -5.03597  -5.03597
 Alpha  occ. eigenvalues --   -5.03597  -5.03597  -5.03597  -5.03597  -5.03597
 Alpha  occ. eigenvalues --   -5.03597  -5.03435  -5.03435  -5.03435  -5.03433
 Alpha  occ. eigenvalues --   -4.45551  -4.45523  -4.45523  -4.45523  -2.63688
 Alpha  occ. eigenvalues --   -2.63180  -2.63180  -2.63180  -2.61743  -2.61743
 Alpha  occ. eigenvalues --   -2.61694  -2.61694  -2.61694  -2.61543  -2.61543
 Alpha  occ. eigenvalues --   -2.61543  -0.93305  -0.93159  -0.93159  -0.93159
 Alpha  occ. eigenvalues --   -0.72645  -0.67632  -0.67632  -0.67632  -0.67117
 Alpha  occ. eigenvalues --   -0.67117  -0.66801  -0.66801  -0.66801  -0.65890
 Alpha  occ. eigenvalues --   -0.65890  -0.65890  -0.62246  -0.62246  -0.62246
 Alpha  occ. eigenvalues --   -0.61829  -0.61829  -0.59649  -0.59649  -0.59649
 Alpha  occ. eigenvalues --   -0.58092  -0.56834  -0.56834  -0.56834  -0.56758
 Alpha  occ. eigenvalues --   -0.56758  -0.54895  -0.54895  -0.54895  -0.52748
 Alpha  occ. eigenvalues --   -0.52748  -0.52748  -0.52194
 Alpha virt. eigenvalues --   -0.30467  -0.30467  -0.30467  -0.24044  -0.24044
 Alpha virt. eigenvalues --   -0.19806  -0.19806  -0.19806  -0.19649  -0.19649
 Alpha virt. eigenvalues --   -0.19649  -0.19146  -0.16892  -0.16892  -0.16892
 Alpha virt. eigenvalues --   -0.14888  -0.14888  -0.14888  -0.14405  -0.14405
 Alpha virt. eigenvalues --   -0.09263  -0.09092  -0.09092  -0.09092  -0.03378
 Alpha virt. eigenvalues --   -0.03378  -0.03378   0.01272   0.02510   0.02510
 Alpha virt. eigenvalues --    0.02510   0.12579   0.12579   0.12631   0.12631
 Alpha virt. eigenvalues --    0.12631   0.13759   0.13759   0.13759   0.14455
 Alpha virt. eigenvalues --    0.14455   0.14455   0.14984   0.19483   0.19781
 Alpha virt. eigenvalues --    0.19781   0.19832   0.19832   0.19832   0.21040
 Alpha virt. eigenvalues --    0.21040   0.21040   0.23004   0.23004   0.23004
 Alpha virt. eigenvalues --    0.27436   0.27436   0.27436   0.32103   0.32405
 Alpha virt. eigenvalues --    0.32405   0.34114   0.34114   0.34114   0.34711
 Alpha virt. eigenvalues --    0.34711   0.34711   0.40485   0.42356   0.42356
 Alpha virt. eigenvalues --    0.42356   0.43776   0.43776   0.43776   0.44951
 Alpha virt. eigenvalues --    0.44951   0.44951   0.45055   0.45055   0.45686
 Alpha virt. eigenvalues --    0.45686   0.50657   0.50657   0.50657   0.58912
 Alpha virt. eigenvalues --    0.58912   0.58912   0.62553   0.62553   0.62553
 Alpha virt. eigenvalues --    0.64034   0.66766   0.66766   0.74492   0.74492
 Alpha virt. eigenvalues --    0.74492   0.76456   0.76456   0.76456   0.78018
 Alpha virt. eigenvalues --    0.78018   0.87327   0.87327   0.87327   0.93240
 Alpha virt. eigenvalues --    0.93240   0.93240   1.03378   1.03378   1.03378
 Alpha virt. eigenvalues --    1.06928   1.12922   1.12923   1.12923   1.12923
 Alpha virt. eigenvalues --    1.20247   1.20247   1.23680   1.23680   1.23680
 Alpha virt. eigenvalues --    1.25199   1.25199   1.25199   1.29162   1.29162
 Alpha virt. eigenvalues --    1.29162   1.32285   1.32621   1.33155   1.33155
 Alpha virt. eigenvalues --    1.33253   1.33253   1.33253   1.33832   1.33832
 Alpha virt. eigenvalues --    1.33832   1.35665   1.35665   1.35665   1.36675
 Alpha virt. eigenvalues --    1.36675   1.36675   1.36805   1.36805   1.40303
 Alpha virt. eigenvalues --    1.40303   1.40303   1.42169   1.46847   1.46847
 Alpha virt. eigenvalues --    1.46847   1.47232   1.47232   1.47781   1.47781
 Alpha virt. eigenvalues --    1.47781   1.50066   1.50066   1.50066   1.52040
 Alpha virt. eigenvalues --    1.52040   1.52040   1.54410   1.80625   1.84140
 Alpha virt. eigenvalues --    1.84140   1.84140   2.00134   2.00832   2.00832
 Alpha virt. eigenvalues --    2.00901   2.00901   2.00901   2.00914   2.00914
 Alpha virt. eigenvalues --    2.00914   2.20814   2.20814   2.20814  42.54126
 Alpha virt. eigenvalues --   42.76361  42.76361  42.76361 202.32618 202.43655
 Alpha virt. eigenvalues --  202.43655 202.43655
          Condensed to atoms (all electrons):
               1          2          3          4          5          6
     1  Au  18.801466  -0.020470  -0.020470  -0.020470   0.264599  -0.009417
     2  Au  -0.020470  18.801466  -0.020470  -0.020470  -0.022379   0.001186
     3  Au  -0.020470  -0.020470  18.801466  -0.020470  -0.022379   0.001186
     4  Au  -0.020470  -0.020470  -0.020470  18.801466  -0.022379  -0.000008
     5  P    0.264599  -0.022379  -0.022379  -0.022379  13.680726   0.357231
     6  H   -0.009417   0.001186   0.001186  -0.000008   0.357231   0.548260
     7  H   -0.009417  -0.000008   0.001186   0.001186   0.357231  -0.010282
     8  H   -0.009417   0.001186  -0.000008   0.001186   0.357231  -0.010282
     9  P   -0.022379   0.264599  -0.022379  -0.022379   0.000051  -0.000002
    10  H   -0.000008  -0.009417   0.001186   0.001186  -0.000000   0.000000
    11  H    0.001186  -0.009417   0.001186  -0.000008  -0.000002   0.000000
    12  H    0.001186  -0.009417  -0.000008   0.001186  -0.000002   0.000000
    13  P   -0.022379  -0.022379   0.264599  -0.022379   0.000051  -0.000002
    14  H    0.001186   0.001186  -0.009417  -0.000008  -0.000002   0.000000
    15  H   -0.000008   0.001186  -0.009417   0.001186  -0.000000   0.000000
    16  H    0.001186  -0.000008  -0.009417   0.001186  -0.000002   0.000000
    17  P   -0.022379  -0.022379  -0.022379   0.264599   0.000051  -0.000000
    18  H    0.001186  -0.000008   0.001186  -0.009417  -0.000002   0.000000
    19  H   -0.000008   0.001186   0.001186  -0.009417  -0.000000  -0.000000
    20  H    0.001186   0.001186  -0.000008  -0.009417  -0.000002   0.000000
               7          8          9         10         11         12
     1  Au  -0.009417  -0.009417  -0.022379  -0.000008   0.001186   0.001186
     2  Au  -0.000008   0.001186   0.264599  -0.009417  -0.009417  -0.009417
     3  Au   0.001186  -0.000008  -0.022379   0.001186   0.001186  -0.000008
     4  Au   0.001186   0.001186  -0.022379   0.001186  -0.000008   0.001186
     5  P    0.357231   0.357231   0.000051  -0.000000  -0.000002  -0.000002
     6  H   -0.010282  -0.010282  -0.000002   0.000000   0.000000   0.000000
     7  H    0.548260  -0.010282  -0.000000  -0.000000   0.000000   0.000000
     8  H   -0.010282   0.548260  -0.000002   0.000000   0.000000   0.000000
     9  P   -0.000000  -0.000002  13.680726   0.357231   0.357231   0.357231
    10  H   -0.000000   0.000000   0.357231   0.548260  -0.010282  -0.010282
    11  H    0.000000   0.000000   0.357231  -0.010282   0.548260  -0.010282
    12  H    0.000000   0.000000   0.357231  -0.010282  -0.010282   0.548260
    13  P   -0.000002  -0.000000   0.000051  -0.000002  -0.000002  -0.000000
    14  H    0.000000   0.000000  -0.000002   0.000000   0.000000   0.000000
    15  H    0.000000  -0.000000  -0.000002   0.000000   0.000000   0.000000
    16  H    0.000000   0.000000  -0.000000   0.000000   0.000000  -0.000000
    17  P   -0.000002  -0.000002   0.000051  -0.000002  -0.000000  -0.000002
    18  H    0.000000   0.000000  -0.000000   0.000000  -0.000000   0.000000
    19  H    0.000000   0.000000  -0.000002   0.000000   0.000000   0.000000
    20  H    0.000000   0.000000  -0.000002   0.000000   0.000000   0.000000
              13         14         15         16         17         18
     1  Au  -0.022379   0.001186  -0.000008   0.001186  -0.022379   0.001186
     2  Au  -0.022379   0.001186   0.001186  -0.000008  -0.022379  -0.000008
     3  Au   0.264599  -0.009417  -0.009417  -0.009417  -0.022379   0.001186
     4  Au  -0.022379  -0.000008   0.001186   0.001186   0.264599  -0.009417
     5  P    0.000051  -0.000002  -0.000000  -0.000002   0.000051  -0.000002
     6  H   -0.000002   0.000000   0.000000   0.000000  -0.000000   0.000000
     7  H   -0.000002   0.000000   0.000000   0.000000  -0.000002   0.000000
     8  H   -0.000000   0.000000  -0.000000   0.000000  -0.000002   0.000000
     9  P    0.000051  -0.000002  -0.000002  -0.000000   0.000051  -0.000000
    10  H   -0.000002   0.000000   0.000000   0.000000  -0.000002   0.000000
    11  H   -0.000002   0.000000   0.000000   0.000000  -0.000000  -0.000000
    12  H   -0.000000   0.000000   0.000000  -0.000000  -0.000002   0.000000
    13  P   13.680726   0.357231   0.357231   0.357231   0.000051  -0.000002
    14  H    0.357231   0.548260  -0.010282  -0.010282  -0.000000   0.000000
    15  H    0.357231  -0.010282   0.548260  -0.010282  -0.000002   0.000000
    16  H    0.357231  -0.010282  -0.010282   0.548260  -0.000002   0.000000
    17  P    0.000051  -0.000000  -0.000002  -0.000002  13.680726   0.357231
    18  H   -0.000002   0.000000   0.000000   0.000000   0.357231   0.548260
    19  H   -0.000002   0.000000   0.000000   0.000000   0.357231  -0.010282
    20  H   -0.000000  -0.000000   0.000000   0.000000   0.357231  -0.010282
              19         20
     1  Au  -0.000008   0.001186
     2  Au   0.001186   0.001186
     3  Au   0.001186  -0.000008
     4  Au  -0.009417  -0.009417
     5  P   -0.000000  -0.000002
     6  H   -0.000000   0.000000
     7  H    0.000000   0.000000
     8  H    0.000000   0.000000
     9  P   -0.000002  -0.000002
    10  H    0.000000   0.000000
    11  H    0.000000   0.000000
    12  H    0.000000   0.000000
    13  P   -0.000002  -0.000000
    14  H    0.000000  -0.000000
    15  H    0.000000   0.000000
    16  H    0.000000   0.000000
    17  P    0.357231   0.357231
    18  H   -0.010282  -0.010282
    19  H    0.548260  -0.010282
    20  H   -0.010282   0.548260
 Mulliken charges:
               1
     1  Au   0.083640
     2  Au   0.083640
     3  Au   0.083640
     4  Au   0.083640
     5  P    0.049976
     6  H    0.122128
     7  H    0.122128
     8  H    0.122128
     9  P    0.049976
    10  H    0.122128
    11  H    0.122128
    12  H    0.122128
    13  P    0.049976
    14  H    0.122128
    15  H    0.122128
    16  H    0.122128
    17  P    0.049976
    18  H    0.122128
    19  H    0.122128
    20  H    0.122128
 Sum of Mulliken charges =   2.00000
 Mulliken charges with hydrogens summed into heavy atoms:
               1
     1  Au   0.083640
     2  Au   0.083640
     3  Au   0.083640
     4  Au   0.083640
     5  P    0.416360
     9  P    0.416360
    13  P    0.416360
    17  P    0.416360
 Electronic spatial extent (au):  <R**2>=           5488.3491
 Charge=              2.0000 electrons
 Dipole moment (field-independent basis, Debye):
    X=              0.0000    Y=              0.0000    Z=             -0.0000  Tot=              0.0000
 Quadrupole moment (field-independent basis, Debye-Ang):
   XX=            -77.9348   YY=            -77.9348   ZZ=            -77.9348
   XY=              0.0000   XZ=              0.0000   YZ=              0.0000
 Traceless Quadrupole moment (field-independent basis, Debye-Ang):
   XX=             -0.0000   YY=             -0.0000   ZZ=              0.0000
   XY=              0.0000   XZ=              0.0000   YZ=              0.0000
 Octapole moment (field-independent basis, Debye-Ang**2):
  XXX=              0.0000  YYY=              0.0000  ZZZ=             -0.0000  XYY=              0.0000
  XXY=              0.0000  XXZ=              0.0000  XZZ=             -0.0000  YZZ=              0.0000
  YYZ=              0.0000  XYZ=            145.4848
 Hexadecapole moment (field-independent basis, Debye-Ang**3):
 XXXX=          -2018.2369 YYYY=          -2018.2369 ZZZZ=          -2018.2369 XXXY=              0.0000
 XXXZ=              0.0000 YYYX=              0.0000 YYYZ=              0.0000 ZZZX=             -0.0000
 ZZZY=             -0.0000 XXYY=           -428.7707 XXZZ=           -428.7707 YYZZ=           -428.7707
 XXYZ=              0.0000 YYXZ=              0.0000 ZZXY=              0.0000
 N-N= 1.361399478450D+03 E-N=-7.080197383356D+03  KE= 1.550273402900D+03
 Symmetry A    KE= 3.884066497860D+02
 Symmetry B1   KE= 3.872889177047D+02
 Symmetry B2   KE= 3.872889177047D+02
 Symmetry B3   KE= 3.872889177047D+02
 No NMR shielding tensors so no spin-rotation constants.
 Leave Link  601 at Mon Aug 16 12:08:35 2021, MaxMem=   268435456 cpu:               0.4 elap:               0.1
 (Enter /home/zhangjx/ssd/softwares/g16/l9999.exe)
 1\1\GINC-LOCALHOST\FOpt\RPBE1PBE\def2SVP\Au4H12P4(2+)\ZHANGJX\16-Aug-2
 021\0\\#p opt pbe1pbe/def2SVP int=ultrafine\\Au4L4-opt\\2,1\Au,0.00000
 00003,0.0000000042,1.7109284089\Au,-0.0000000026,-1.6130787737,-0.5703
 094698\Au,1.3969671986,0.8065393866,-0.5703094731\Au,-1.3969671963,0.8
 06539391,-0.5703094726\P,0.0000000008,0.0000000071,4.0508630055\H,1.10
 03334183,-0.6352777892,4.6708612307\H,0.0000000029,1.2705555985,4.6708
 612285\H,-1.1003334186,-0.6352777857,4.6708612311\P,-0.0000000063,-3.8
 19190269,-1.3502876659\H,-0.0000000068,-3.9802116725,-2.7548450393\H,1
 .100333411,-4.6154894673,-0.9580080906\H,-1.1003334259,-4.6154894638,-
 0.9580080902\P,3.3075157979,1.9095951298,-1.3502876737\H,4.54729784,1.
 3548280339,-0.9580080988\H,3.4469644222,1.9901058287,-2.7548450474\H,3
 .4469644245,3.2606614216,-0.9580081009\P,-3.3075157924,1.9095951402,-1
 .3502876725\H,-3.4469644146,3.2606614324,-0.9580080997\H,-3.446964417,
 1.9901058395,-2.7548450461\H,-4.547297836,1.3548280482,-0.9580080971\\
 Version=ES64L-G16RevA.03\State=1-A1\HF=-1914.2280892\RMSD=1.715e-09\RM
 SF=8.714e-05\Dipole=0.,0.,0.\Quadrupole=0.,0.,0.,0.,0.,0.\PG=TD [4C3(.
 Au1P1),6SGD(H2)]\\@


 I SUPPOSE A BABY LLAMA HAS A MMAMA AND A PPOPA.
     -- RICHARD AMOUR
 Job cpu time:       0 days  0 hours  3 minutes  2.9 seconds.
 Elapsed time:       0 days  0 hours  0 minutes 45.9 seconds.
 File lengths (MBytes):  RWF=     47 Int=      0 D2E=      0 Chk=      6 Scr=      1
 Normal termination of Gaussian 16 at Mon Aug 16 12:08:35 2021.
