 Entering Gaussian System, Link 0=/home/zhangjx/ssd/softwares/g16/g16
 Input=Au-d10.gjf
 Output=Au-d10.log
 Initial command:
 /home/zhangjx/ssd/softwares/g16/l1.exe "/home/zhangjx/ssd/scratch/Gau-813122.inp" -scrdir="/home/zhangjx/ssd/scratch/"
 Entering Link 1 = /home/zhangjx/ssd/softwares/g16/l1.exe PID=    813124.
  
 Copyright (c) 1988,1990,1992,1993,1995,1998,2003,2009,2016,
            Gaussian, Inc.  All Rights Reserved.
  
 This is part of the Gaussian(R) 16 program.  It is based on
 the Gaussian(R) 09 system (copyright 2009, Gaussian, Inc.),
 the Gaussian(R) 03 system (copyright 2003, Gaussian, Inc.),
 the Gaussian(R) 98 system (copyright 1998, Gaussian, Inc.),
 the Gaussian(R) 94 system (copyright 1995, Gaussian, Inc.),
 the Gaussian 92(TM) system (copyright 1992, Gaussian, Inc.),
 the Gaussian 90(TM) system (copyright 1990, Gaussian, Inc.),
 the Gaussian 88(TM) system (copyright 1988, Gaussian, Inc.),
 the Gaussian 86(TM) system (copyright 1986, Carnegie Mellon
 University), and the Gaussian 82(TM) system (copyright 1983,
 Carnegie Mellon University). Gaussian is a federally registered
 trademark of Gaussian, Inc.
  
 This software contains proprietary and confidential information,
 including trade secrets, belonging to Gaussian, Inc.
  
 This software is provided under written license and may be
 used, copied, transmitted, or stored only in accord with that
 written license.
  
 The following legend is applicable only to US Government
 contracts under FAR:
  
                    RESTRICTED RIGHTS LEGEND
  
 Use, reproduction and disclosure by the US Government is
 subject to restrictions as set forth in subparagraphs (a)
 and (c) of the Commercial Computer Software - Restricted
 Rights clause in FAR 52.227-19.
  
 Gaussian, Inc.
 340 Quinnipiac St., Bldg. 40, Wallingford CT 06492
  
  
 ---------------------------------------------------------------
 Warning -- This program may not be used in any manner that
 competes with the business of Gaussian, Inc. or will provide
 assistance to any competitor of Gaussian, Inc.  The licensee
 of this program is prohibited from giving any competitor of
 Gaussian, Inc. access to this program.  By using this program,
 the user acknowledges that Gaussian, Inc. is engaged in the
 business of creating and licensing software in the field of
 computational chemistry and represents and warrants to the
 licensee that it is not a competitor of Gaussian, Inc. and that
 it will not use this program in any manner prohibited above.
 ---------------------------------------------------------------
  

 Cite this work as:
 Gaussian 16, Revision A.03,
 M. J. Frisch, G. W. Trucks, H. B. Schlegel, G. E. Scuseria, 
 M. A. Robb, J. R. Cheeseman, G. Scalmani, V. Barone, 
 G. A. Petersson, H. Nakatsuji, X. Li, M. Caricato, A. V. Marenich, 
 J. Bloino, B. G. Janesko, R. Gomperts, B. Mennucci, H. P. Hratchian, 
 J. V. Ortiz, A. F. Izmaylov, J. L. Sonnenberg, D. Williams-Young, 
 F. Ding, F. Lipparini, F. Egidi, J. Goings, B. Peng, A. Petrone, 
 T. Henderson, D. Ranasinghe, V. G. Zakrzewski, J. Gao, N. Rega, 
 G. Zheng, W. Liang, M. Hada, M. Ehara, K. Toyota, R. Fukuda, 
 J. Hasegawa, M. Ishida, T. Nakajima, Y. Honda, O. Kitao, H. Nakai, 
 T. Vreven, K. Throssell, J. A. Montgomery, Jr., J. E. Peralta, 
 F. Ogliaro, M. J. Bearpark, J. J. Heyd, E. N. Brothers, K. N. Kudin, 
 V. N. Staroverov, T. A. Keith, R. Kobayashi, J. Normand, 
 K. Raghavachari, A. P. Rendell, J. C. Burant, S. S. Iyengar, 
 J. Tomasi, M. Cossi, J. M. Millam, M. Klene, C. Adamo, R. Cammi, 
 J. W. Ochterski, R. L. Martin, K. Morokuma, O. Farkas, 
 J. B. Foresman, and D. J. Fox, Gaussian, Inc., Wallingford CT, 2016.
 
 ******************************************
 Gaussian 16:  ES64L-G16RevA.03 25-Dec-2016
                25-Oct-2022 
 ******************************************
 %chk=Au-d10.chk
 ----------------------------------------------------------------------
 #p pbe1pbe/def2TZVP guess=alter gfinput pop=nboread int=ultrafine scf=
 (dsymm,symm) symm=pg=Ih
 ----------------------------------------------------------------------
 1/38=1,172=1/1;
 2/12=2,17=6,18=5,19=2314885530818463817,40=1/2;
 3/5=44,7=101,11=2,24=10,25=1,30=1,74=-13,75=-5/1,2,3;
 4/8=1,9=4/1;
 5/5=2,15=2,17=200,38=5/2;
 6/7=2,8=2,9=2,10=2,28=1,40=2/1,7;
 99/5=1,9=1/99;
 Leave Link    1 at Tue Oct 25 18:19:43 2022, MaxMem=           0 cpu:               0.0 elap:               0.0
 (Enter /home/zhangjx/ssd/softwares/g16/l101.exe)
 ------
 Au-d10
 ------
 Symbolic Z-matrix:
 Charge =  1 Multiplicity = 1
 Au
 
 ITRead=  0
 MicOpt= -1
 NAtoms=      1 NQM=        1 NQMF=       0 NMMI=      0 NMMIF=      0
                NMic=       0 NMicF=      0.
                    Isotopes and Nuclear Properties:
 (Nuclear quadrupole moments (NQMom) in fm**2, nuclear magnetic moments (NMagM)
  in nuclear magnetons)

  Atom         1
 IAtWgt=         197
 AtmWgt= 196.9666000
 NucSpn=           3
 AtZEff=  -0.0000000
 NQMom=   54.7000000
 NMagM=    0.1481590
 AtZNuc=  79.0000000
 Leave Link  101 at Tue Oct 25 18:19:43 2022, MaxMem=   104857600 cpu:               0.1 elap:               0.1
 (Enter /home/zhangjx/ssd/softwares/g16/l202.exe)
                          Input orientation:                          
 ---------------------------------------------------------------------
 Center     Atomic      Atomic             Coordinates (Angstroms)
 Number     Number       Type             X           Y           Z
 ---------------------------------------------------------------------
      1         79           0        0.000000    0.000000    0.000000
 ---------------------------------------------------------------------
 Symm:  InNGrp=IH   InAxis=0 RotPrA=F RotCs=T.
 Stoichiometry    Au(1+)
 Framework group  IH[O(Au)]
 Deg. of freedom     0
 Full point group                 IH      NOp 120
 Largest Abelian subgroup         C2H     NOp   4
 Largest concise Abelian subgroup C1      NOp   1
                         Standard orientation:                         
 ---------------------------------------------------------------------
 Center     Atomic      Atomic             Coordinates (Angstroms)
 Number     Number       Type             X           Y           Z
 ---------------------------------------------------------------------
      1         79           0        0.000000    0.000000    0.000000
 ---------------------------------------------------------------------
 Leave Link  202 at Tue Oct 25 18:19:43 2022, MaxMem=   104857600 cpu:               0.0 elap:               0.0
 (Enter /home/zhangjx/ssd/softwares/g16/l301.exe)
 Standard basis: def2TZVP (5D, 7F)
 Ernie: Thresh=  0.10000D-02 Tol=  0.10000D-05 Strict=F.
 AO basis set in the form of general basis input (Overlap normalization):
      1 0
 S   3 1.00       0.000000000000
      0.3000000000D+02  0.7878815861D+00
      0.2700000000D+02 -0.1263235272D+01
      0.1474682433D+02  0.1454419434D+01
 S   1 1.00       0.000000000000
      0.5601724894D+01  0.1000000000D+01
 S   1 1.00       0.000000000000
      0.1387416244D+01  0.1000000000D+01
 S   1 1.00       0.000000000000
      0.6292303196D+00  0.1000000000D+01
 S   1 1.00       0.000000000000
      0.1402751761D+00  0.1000000000D+01
 S   1 1.00       0.000000000000
      0.4937941376D-01  0.1000000000D+01
 P   4 1.00       0.000000000000
      0.1550000000D+02  0.3283807140D+00
      0.1400000000D+02 -0.5168081731D+00
      0.6422736820D+01  0.6886210803D+00
      0.1659560168D+01 -0.1253826179D+01
 P   1 1.00       0.000000000000
      0.7940291399D+00  0.1000000000D+01
 P   1 1.00       0.000000000000
      0.3512515540D+00  0.1000000000D+01
 P   1 1.00       0.000000000000
      0.4500000000D-01  0.1000000000D+01
 D   4 1.00       0.000000000000
      0.9552409866D+01  0.5562082670D-01
      0.7269888694D+01 -0.1298067767D+00
      0.1774649679D+01  0.4398380516D+00
      0.7996054106D+00  0.6483375307D+00
 D   1 1.00       0.000000000000
      0.3325227937D+00  0.1000000000D+01
 D   1 1.00       0.000000000000
      0.1244513311D+00  0.1000000000D+01
 F   1 1.00       0.000000000000
      0.7248200000D+00  0.1000000000D+01
 ****

 Effective core potential in the form of general ECP input:
      1 0
 Au1-ECP   4 60
 G component
  1
  2        1.0000000        0.00000000    0.00000000
 S-G projection
  2
  2       13.2051000      426.84667900    0.00000000
  2        6.6025500       37.00708300    0.00000000
 P-G projection
  2
  2       10.4520200      261.19958000    0.00000000
  2        5.2260100       26.96249600    0.00000000
 D-G projection
  2
  2        7.8511000      124.79066600    0.00000000
  2        3.9255500       16.30072600    0.00000000
 F-G projection
  2
  2        4.7898200       30.49008900    0.00000000
  2        2.3949100        5.17107400    0.00000000
 
 There are    18 symmetry adapted cartesian basis functions of AG  symmetry.
 There are     6 symmetry adapted cartesian basis functions of BG  symmetry.
 There are     8 symmetry adapted cartesian basis functions of AU  symmetry.
 There are    14 symmetry adapted cartesian basis functions of BU  symmetry.
 There are    15 symmetry adapted basis functions of AG  symmetry.
 There are     6 symmetry adapted basis functions of BG  symmetry.
 There are     7 symmetry adapted basis functions of AU  symmetry.
 There are    12 symmetry adapted basis functions of BU  symmetry.
    40 basis functions,    75 primitive gaussians,    46 cartesian basis functions
     9 alpha electrons        9 beta electrons
       nuclear repulsion energy         0.0000000000 Hartrees.
 IExCor= 1009 DFT=T Ex+Corr=PBE1PBE ExCW=0 ScaHFX=  0.250000
 ScaDFX=  0.750000  0.750000  1.000000  1.000000 ScalE2=  1.000000  1.000000
 IRadAn=      5 IRanWt=     -1 IRanGd=            0 ICorTp=0 IEmpDi=  4
 NAtoms=    1 NActive=    1 NUniq=    1 SFac= 1.00D+00 NAtFMM=   60 NAOKFM=F Big=F
 Integral buffers will be    131072 words long.
 Raffenetti 2 integral format.
 Two-electron integral symmetry is turned on.
 Leave Link  301 at Tue Oct 25 18:19:43 2022, MaxMem=   104857600 cpu:               0.0 elap:               0.0
 (Enter /home/zhangjx/ssd/softwares/g16/l302.exe)
 NPDir=0 NMtPBC=     1 NCelOv=     1 NCel=       1 NClECP=     1 NCelD=      1
         NCelK=      1 NCelE2=     1 NClLst=     1 CellRange=     0.0.
 One-electron integrals computed using PRISM.
 One-electron integral symmetry used in STVInt
 120 Symmetry operations used in ECPInt.
 ECPInt:  NShTT=     105 NPrTT=     268 LenC2=     106 LenP2D=     268.
 LDataN:  DoStor=T MaxTD1= 7 Len=  274
 NBasis=    40 RedAO= T EigKep=  1.67D-02  NBF=    15     6     7    12
 NBsUse=    40 1.00D-06 EigRej= -1.00D+00 NBFU=    15     6     7    12
 Precomputing XC quadrature grid using
 IXCGrd= 4 IRadAn=           5 IRanWt=          -1 IRanGd=           0 AccXCQ= 0.00D+00.
 Defaulting to unpruned grid for atomic number  79.
 Generated NRdTot=       0 NPtTot=           0 NUsed=           0 NTot=          32
 NSgBfM=    46    46    46    46    46 MxSgAt=     1 MxSgA2=     1.
 Leave Link  302 at Tue Oct 25 18:19:43 2022, MaxMem=   104857600 cpu:               0.1 elap:               0.1
 (Enter /home/zhangjx/ssd/softwares/g16/l303.exe)
 DipDrv:  MaxL=1.
 Leave Link  303 at Tue Oct 25 18:19:43 2022, MaxMem=   104857600 cpu:               0.0 elap:               0.0
 (Enter /home/zhangjx/ssd/softwares/g16/l401.exe)
 ExpMin= 4.50D-02 ExpMax= 3.00D+01 ExpMxC= 3.00D+01 IAcc=3 IRadAn=         5 AccDes= 0.00D+00
 Harris functional with IExCor= 1009 and IRadAn=       5 diagonalized for initial guess.
 HarFok:  IExCor= 1009 AccDes= 0.00D+00 IRadAn=         5 IDoV= 1 UseB2=F ITyADJ=14
 ICtDFT=  3500011 ScaDFX=  1.000000  1.000000  1.000000  1.000000
 Defaulting to unpruned grid for atomic number  79.
 FoFCou: FMM=F IPFlag=           0 FMFlag=      100000 FMFlg1=           0
         NFxFlg=           0 DoJE=T BraDBF=F KetDBF=T FulRan=T
         wScrn=  0.000000 ICntrl=       500 IOpCl=  0 I1Cent=   200000004 NGrid=           0
         NMat0=    1 NMatS0=      1 NMatT0=    0 NMatD0=    1 NMtDS0=    0 NMtDT0=    0
 Petite list used in FoFCou.
 Harris En= -135.380031028243    
 JPrj=0 DoOrth=F DoCkMO=F.
 Pairs of Alpha orbitals switched:
    5  10
 Initial guess orbital symmetries:
       Occupied  (AG) (T1U) (T1U) (T1U) (HG) (HG) (HG) (HG) (HG)
       Virtual   (AG) (T1U) (T1U) (T1U) (AG) (HG) (HG) (HG) (HG)
                 (HG) (T1U) (T1U) (T1U) (HG) (HG) (HG) (HG) (HG)
                 (GU) (GU) (GU) (GU) (T2U) (T2U) (T2U) (AG) (T1U)
                 (T1U) (T1U) (AG) (AG)
 The electronic state of the initial guess is 1-AG.
 Leave Link  401 at Tue Oct 25 18:19:43 2022, MaxMem=   104857600 cpu:               0.1 elap:               0.1
 (Enter /home/zhangjx/ssd/softwares/g16/l502.exe)
 Keep R1 ints in memory in symmetry-blocked form, NReq=2289370.
 FoFCou: FMM=F IPFlag=           0 FMFlag=           0 FMFlg1=           0
         NFxFlg=           0 DoJE=F BraDBF=F KetDBF=F FulRan=T
         wScrn=  0.000000 ICntrl=       600 IOpCl=  0 I1Cent=           0 NGrid=           0
         NMat0=    1 NMatS0=    820 NMatT0=    0 NMatD0=    1 NMtDS0=    0 NMtDT0=    0
 Petite list used in FoFCou.
 Closed shell SCF:
 Using DIIS extrapolation, IDIIS=  1040.
 NGot=   104857600 LenX=   104761230 LenY=   104758673
 Requested convergence on RMS density matrix=1.00D-08 within 128 cycles.
 Requested convergence on MAX density matrix=1.00D-06.
 Requested convergence on             energy=1.00D-06.
 No special actions if energy rises.

 Cycle   1  Pass 1  IDiag  1:
 Defaulting to unpruned grid for atomic number  79.
 E= -135.178358287078    
 DIIS: error= 8.79D-02 at cycle   1 NSaved=   1.
 NSaved= 1 IEnMin= 1 EnMin= -135.178358287078     IErMin= 1 ErrMin= 8.79D-02
 ErrMax= 8.79D-02  0.00D+00 EMaxC= 1.00D-01 BMatC= 2.70D-01 BMatP= 2.70D-01
 IDIUse=3 WtCom= 1.21D-01 WtEn= 8.79D-01
 Coeff-Com:  0.100D+01
 Coeff-En:   0.100D+01
 Coeff:      0.100D+01
 Gap=     0.315 Goal=   None    Shift=    0.000
 GapD=    0.315 DampG=1.000 DampE=0.250 DampFc=0.2500 IDamp=-1.
 Damping current iteration by 2.50D-01
 RMSDP=1.40D-02 MaxDP=1.85D-01              OVMax= 1.77D-01

 Cycle   2  Pass 1  IDiag  1:
 E= -135.249551073230     Delta-E=       -0.071192786152 Rises=F Damp=T
 DIIS: error= 4.54D-02 at cycle   2 NSaved=   2.
 NSaved= 2 IEnMin= 2 EnMin= -135.249551073230     IErMin= 2 ErrMin= 4.54D-02
 ErrMax= 4.54D-02  0.00D+00 EMaxC= 1.00D-01 BMatC= 6.75D-02 BMatP= 2.70D-01
 IDIUse=3 WtCom= 5.46D-01 WtEn= 4.54D-01
 Coeff-Com: -0.981D+00 0.198D+01
 Coeff-En:   0.000D+00 0.100D+01
 Coeff:     -0.535D+00 0.154D+01
 Gap=     0.229 Goal=   None    Shift=    0.000
 RMSDP=5.69D-03 MaxDP=6.97D-02 DE=-7.12D-02 OVMax= 5.52D-02

 Cycle   3  Pass 1  IDiag  1:
 E= -135.349698876747     Delta-E=       -0.100147803517 Rises=F Damp=F
 DIIS: error= 2.14D-02 at cycle   3 NSaved=   3.
 NSaved= 3 IEnMin= 3 EnMin= -135.349698876747     IErMin= 3 ErrMin= 2.14D-02
 ErrMax= 2.14D-02  0.00D+00 EMaxC= 1.00D-01 BMatC= 2.19D-02 BMatP= 6.75D-02
 IDIUse=3 WtCom= 7.86D-01 WtEn= 2.14D-01
 Coeff-Com:  0.118D+01-0.159D+01 0.141D+01
 Coeff-En:   0.000D+00 0.000D+00 0.100D+01
 Coeff:      0.931D+00-0.125D+01 0.132D+01
 Gap=     0.179 Goal=   None    Shift=    0.000
 RMSDP=2.76D-03 MaxDP=3.66D-02 DE=-1.00D-01 OVMax= 3.26D-02

 Cycle   4  Pass 1  IDiag  1:
 E= -135.362256627436     Delta-E=       -0.012557750689 Rises=F Damp=F
 DIIS: error= 6.95D-03 at cycle   4 NSaved=   4.
 NSaved= 4 IEnMin= 4 EnMin= -135.362256627436     IErMin= 4 ErrMin= 6.95D-03
 ErrMax= 6.95D-03  0.00D+00 EMaxC= 1.00D-01 BMatC= 2.26D-03 BMatP= 2.19D-02
 IDIUse=3 WtCom= 9.30D-01 WtEn= 6.95D-02
 Coeff-Com: -0.745D-01 0.103D+00 0.173D+00 0.798D+00
 Coeff-En:   0.000D+00 0.000D+00 0.000D+00 0.100D+01
 Coeff:     -0.693D-01 0.954D-01 0.161D+00 0.813D+00
 Gap=     0.191 Goal=   None    Shift=    0.000
 RMSDP=7.23D-04 MaxDP=9.40D-03 DE=-1.26D-02 OVMax= 8.54D-03

 Cycle   5  Pass 1  IDiag  1:
 E= -135.363649972511     Delta-E=       -0.001393345075 Rises=F Damp=F
 DIIS: error= 6.31D-04 at cycle   5 NSaved=   5.
 NSaved= 5 IEnMin= 5 EnMin= -135.363649972511     IErMin= 5 ErrMin= 6.31D-04
 ErrMax= 6.31D-04  0.00D+00 EMaxC= 1.00D-01 BMatC= 1.83D-05 BMatP= 2.26D-03
 IDIUse=3 WtCom= 9.94D-01 WtEn= 6.31D-03
 Coeff-Com:  0.754D-02-0.987D-02-0.288D-01-0.236D-01 0.105D+01
 Coeff-En:   0.000D+00 0.000D+00 0.000D+00 0.000D+00 0.100D+01
 Coeff:      0.749D-02-0.981D-02-0.286D-01-0.234D-01 0.105D+01
 Gap=     0.190 Goal=   None    Shift=    0.000
 RMSDP=6.16D-05 MaxDP=8.18D-04 DE=-1.39D-03 OVMax= 7.44D-04

 Cycle   6  Pass 1  IDiag  1:
 E= -135.363661587637     Delta-E=       -0.000011615126 Rises=F Damp=F
 DIIS: error= 2.18D-05 at cycle   6 NSaved=   6.
 NSaved= 6 IEnMin= 6 EnMin= -135.363661587637     IErMin= 6 ErrMin= 2.18D-05
 ErrMax= 2.18D-05  0.00D+00 EMaxC= 1.00D-01 BMatC= 2.03D-08 BMatP= 1.83D-05
 IDIUse=1 WtCom= 1.00D+00 WtEn= 0.00D+00
 Coeff-Com:  0.554D-04-0.965D-04-0.543D-03 0.628D-02 0.119D+00 0.876D+00
 Coeff:      0.554D-04-0.965D-04-0.543D-03 0.628D-02 0.119D+00 0.876D+00
 Gap=     0.190 Goal=   None    Shift=    0.000
 RMSDP=1.95D-06 MaxDP=2.68D-05 DE=-1.16D-05 OVMax= 2.49D-05

 Cycle   7  Pass 1  IDiag  1:
 E= -135.363661601191     Delta-E=       -0.000000013554 Rises=F Damp=F
 DIIS: error= 2.44D-07 at cycle   7 NSaved=   7.
 NSaved= 7 IEnMin= 7 EnMin= -135.363661601191     IErMin= 7 ErrMin= 2.44D-07
 ErrMax= 2.44D-07  0.00D+00 EMaxC= 1.00D-01 BMatC= 2.65D-12 BMatP= 2.03D-08
 IDIUse=1 WtCom= 1.00D+00 WtEn= 0.00D+00
 Coeff-Com:  0.463D-05-0.555D-05-0.514D-05-0.191D-03-0.242D-02-0.331D-01
 Coeff-Com:  0.104D+01
 Coeff:      0.463D-05-0.555D-05-0.514D-05-0.191D-03-0.242D-02-0.331D-01
 Coeff:      0.104D+01
 Gap=     0.190 Goal=   None    Shift=    0.000
 RMSDP=2.13D-08 MaxDP=2.91D-07 DE=-1.36D-08 OVMax= 2.67D-07

 Cycle   8  Pass 1  IDiag  1:
 E= -135.363661601191     Delta-E=       -0.000000000000 Rises=F Damp=F
 DIIS: error= 9.45D-09 at cycle   8 NSaved=   8.
 NSaved= 8 IEnMin= 8 EnMin= -135.363661601191     IErMin= 8 ErrMin= 9.45D-09
 ErrMax= 9.45D-09  0.00D+00 EMaxC= 1.00D-01 BMatC= 3.71D-15 BMatP= 2.65D-12
 IDIUse=1 WtCom= 1.00D+00 WtEn= 0.00D+00
 Coeff-Com:  0.154D-07-0.295D-07-0.368D-06 0.323D-05 0.545D-04 0.224D-04
 Coeff-Com: -0.252D-01 0.103D+01
 Coeff:      0.154D-07-0.295D-07-0.368D-06 0.323D-05 0.545D-04 0.224D-04
 Coeff:     -0.252D-01 0.103D+01
 Gap=     0.190 Goal=   None    Shift=    0.000
 RMSDP=8.35D-10 MaxDP=1.16D-08 DE=-2.27D-13 OVMax= 1.10D-08

 SCF Done:  E(RPBE1PBE) =  -135.363661601     A.U. after    8 cycles
            NFock=  8  Conv=0.84D-09     -V/T= 3.9393
 KE= 4.605346262849D+01 PE=-2.788865787503D+02 EE= 9.746945452063D+01
 Leave Link  502 at Tue Oct 25 18:19:44 2022, MaxMem=   104857600 cpu:               0.4 elap:               0.4
 (Enter /home/zhangjx/ssd/softwares/g16/l601.exe)
 Copying SCF densities to generalized density rwf, IOpCl= 0 IROHF=0.

 **********************************************************************

            Population analysis using the SCF density.

 **********************************************************************

 Orbital symmetries:
       Occupied  (AG) (T1U) (T1U) (T1U) (HG) (HG) (HG) (HG) (HG)
       Virtual   (AG) (T1U) (T1U) (T1U) (AG) (HG) (HG) (HG) (HG)
                 (HG) (T1U) (T1U) (T1U) (HG) (HG) (HG) (HG) (HG)
                 (GU) (GU) (GU) (GU) (T2U) (T2U) (T2U) (AG) (T1U)
                 (T1U) (T1U) (AG) (AG)
 The electronic state is 1-AG.
 Alpha  occ. eigenvalues --   -4.47916  -2.65232  -2.65232  -2.65232  -0.62326
 Alpha  occ. eigenvalues --   -0.62326  -0.62326  -0.62326  -0.62326
 Alpha virt. eigenvalues --   -0.43297  -0.19324  -0.19324  -0.19324  -0.04838
 Alpha virt. eigenvalues --    0.08521   0.08521   0.08521   0.08521   0.08521
 Alpha virt. eigenvalues --    0.31723   0.31723   0.31723   1.21645   1.21645
 Alpha virt. eigenvalues --    1.21645   1.21645   1.21645   1.25007   1.25007
 Alpha virt. eigenvalues --    1.25007   1.25007   1.25007   1.25007   1.25007
 Alpha virt. eigenvalues --    1.75348  23.37337  23.37337  23.37337  43.53950
 Alpha virt. eigenvalues --  204.79179
          Condensed to atoms (all electrons):
               1
     1  Au  18.000000
 Mulliken charges:
               1
     1  Au   1.000000
 Sum of Mulliken charges =   1.00000
 Mulliken charges with hydrogens summed into heavy atoms:
               1
     1  Au   1.000000
 Electronic spatial extent (au):  <R**2>=             39.4726
 Charge=              1.0000 electrons
 Dipole moment (field-independent basis, Debye):
    X=              0.0000    Y=              0.0000    Z=              0.0000  Tot=              0.0000
 Quadrupole moment (field-independent basis, Debye-Ang):
   XX=            -17.6973   YY=            -17.6973   ZZ=            -17.6973
   XY=             -0.0000   XZ=             -0.0000   YZ=             -0.0000
 Traceless Quadrupole moment (field-independent basis, Debye-Ang):
   XX=              0.0000   YY=              0.0000   ZZ=              0.0000
   XY=             -0.0000   XZ=             -0.0000   YZ=             -0.0000
 Octapole moment (field-independent basis, Debye-Ang**2):
  XXX=              0.0000  YYY=              0.0000  ZZZ=              0.0000  XYY=              0.0000
  XXY=              0.0000  XXZ=              0.0000  XZZ=              0.0000  YZZ=              0.0000
  YYZ=              0.0000  XYZ=              0.0000
 Hexadecapole moment (field-independent basis, Debye-Ang**3):
 XXXX=            -13.7446 YYYY=            -13.7446 ZZZZ=            -13.7446 XXXY=             -0.0000
 XXXZ=             -0.0000 YYYX=              0.0000 YYYZ=             -0.0000 ZZZX=             -0.0000
 ZZZY=             -0.0000 XXYY=             -4.5815 XXZZ=             -4.5815 YYZZ=             -4.5815
 XXYZ=             -0.0000 YYXZ=             -0.0000 ZZXY=             -0.0000
 N-N= 0.000000000000D+00 E-N=-2.788865792734D+02  KE= 4.605346262849D+01
 Symmetry AG   KE= 1.977955051347D+01
 Symmetry BG   KE= 1.010081961324D+01
 Symmetry AU   KE= 5.391030833926D+00
 Symmetry BU   KE= 1.078206166785D+01
 No NMR shielding tensors so no spin-rotation constants.
 Leave Link  601 at Tue Oct 25 18:19:44 2022, MaxMem=   104857600 cpu:               0.1 elap:               0.1
 (Enter /home/zhangjx/ssd/softwares/g16/l607.exe)
 ******************************Gaussian NBO Version 3.1******************************
             N A T U R A L   A T O M I C   O R B I T A L   A N D
          N A T U R A L   B O N D   O R B I T A L   A N A L Y S I S
 ******************************Gaussian NBO Version 3.1******************************

       /RESON  / : Allow strongly delocalized NBO set
       /SKIPBO / : Skip NBO transformation step
       /ARCHIVE/ : Write the archive file to LFN 47
       /BNDIDX / : Print bond indices based on the NAO density matrix
       /FILE   / : Set to AU-D10                                              

 Analyzing the SCF density

 Job title: Au-d10                                                          

 Storage needed:      5122 in NPA ( 104857591 available)
 GSVD:  LWork=         -74 too small for GESVD, short by        3179 words or        3179 for optimal perf.


 NATURAL POPULATIONS:  Natural atomic orbital occupancies 
                                                          
   NAO  Atom  No  lang   Type(AO)    Occupancy      Energy
 ----------------------------------------------------------
     1   Au    1  S      Cor( 5S)     2.00000      -4.47916
     2   Au    1  S      Val( 6S)     0.00000       8.85498
     3   Au    1  S      Ryd(10S)     0.00000     151.93403
     4   Au    1  S      Ryd( 9S)     0.00000      35.89634
     5   Au    1  S      Ryd( 8S)     0.00000      29.44872
     6   Au    1  S      Ryd( 7S)     0.00000      23.46935
     7   Au    1  px     Cor( 5p)     2.00000      -2.65232
     8   Au    1  px     Val( 8p)     0.00000      22.13058
     9   Au    1  px     Ryd( 6p)     0.00000      -0.18322
    10   Au    1  px     Ryd( 7p)     0.00000       1.54999
    11   Au    1  py     Cor( 5p)     2.00000      -2.65232
    12   Au    1  py     Val( 8p)     0.00000      22.13058
    13   Au    1  py     Ryd( 6p)     0.00000      -0.18322
    14   Au    1  py     Ryd( 7p)     0.00000       1.54999
    15   Au    1  pz     Cor( 5p)     2.00000      -2.65232
    16   Au    1  pz     Val( 8p)     0.00000      22.13058
    17   Au    1  pz     Ryd( 6p)     0.00000      -0.18322
    18   Au    1  pz     Ryd( 7p)     0.00000       1.54999
    19   Au    1  dxy    Val( 5d)     2.00000      -0.62326
    20   Au    1  dxy    Ryd( 6d)     0.00000       0.22019
    21   Au    1  dxy    Ryd( 7d)     0.00000       1.08147
    22   Au    1  dxz    Val( 5d)     2.00000      -0.62326
    23   Au    1  dxz    Ryd( 6d)     0.00000       0.22019
    24   Au    1  dxz    Ryd( 7d)     0.00000       1.08147
    25   Au    1  dyz    Val( 5d)     2.00000      -0.62326
    26   Au    1  dyz    Ryd( 6d)     0.00000       0.22019
    27   Au    1  dyz    Ryd( 7d)     0.00000       1.08147
    28   Au    1  dx2y2  Val( 5d)     2.00000      -0.62326
    29   Au    1  dx2y2  Ryd( 6d)     0.00000       0.22019
    30   Au    1  dx2y2  Ryd( 7d)     0.00000       1.08147
    31   Au    1  dz2    Val( 5d)     2.00000      -0.62326
    32   Au    1  dz2    Ryd( 6d)     0.00000       0.22019
    33   Au    1  dz2    Ryd( 7d)     0.00000       1.08147
    34   Au    1  f(0)   Ryd( 5f)     0.00000       1.25007
    35   Au    1  f(C1)  Ryd( 5f)     0.00000       1.25007
    36   Au    1  f(S1)  Ryd( 5f)     0.00000       1.25007
    37   Au    1  f(C2)  Ryd( 5f)     0.00000       1.25007
    38   Au    1  f(S2)  Ryd( 5f)     0.00000       1.25007
    39   Au    1  f(C3)  Ryd( 5f)     0.00000       1.25007
    40   Au    1  f(S3)  Ryd( 5f)     0.00000       1.25007

 [ 60 electrons found in the effective core potential]

 WARNING:  Population inversion found on atom Au    1


 Summary of Natural Population Analysis:                  
                                                          
                                       Natural Population 
                Natural  -----------------------------------------------
    Atom  No    Charge         Core      Valence    Rydberg      Total
 -----------------------------------------------------------------------
     Au    1    1.00000     68.00000    10.00000    0.00000    78.00000
 =======================================================================
   * Total *    1.00000     68.00000    10.00000    0.00000    78.00000

                                 Natural Population      
 --------------------------------------------------------
   Effective Core            60.00000
   Core                       8.00000 (100.0000% of   8)
   Valence                   10.00000 (100.0000% of  10)
   Natural Minimal Basis     78.00000 (100.0000% of  78)
   Natural Rydberg Basis      0.00000 (  0.0000% of  78)
 --------------------------------------------------------

    Atom  No          Natural Electron Configuration
 ----------------------------------------------------------------------------
     Au    1      [core]5d(10.00)


 Wiberg bond index matrix in the NAO basis:                                    

     Atom    1
     ---- ------
   1. Au  0.0000


 Wiberg bond index, Totals by atom:                                            

     Atom    1
     ---- ------
   1. Au  0.0000


 Atom-atom overlap-weighted NAO bond order:                                    

     Atom    1
     ---- ------
   1. Au  0.0000


 Atom-atom overlap-weighted NAO bond order, Totals by atom:                    

     Atom    1
     ---- ------
   1. Au  0.0000


 MO bond order:                                                                

     Atom    1
     ---- ------
   1. Au  0.0000


 MO atomic valencies:                                                          

     Atom    1
     ---- ------
   1. Au  0.0000


 NBO analysis skipped by request.
 Leave Link  607 at Tue Oct 25 18:19:44 2022, MaxMem=   104857600 cpu:               0.3 elap:               0.3
 (Enter /home/zhangjx/ssd/softwares/g16/l9999.exe)
 1\1\GINC-LOCALHOST\SP\RPBE1PBE\def2TZVP\Au1(1+)\ZHANGJX\25-Oct-2022\2\
 \#p pbe1pbe/def2TZVP guess=alter gfinput pop=nboread int=ultrafine scf
 =(dsymm,symm) symm=pg=Ih\\Au-d10\\1,1\Au\\5,10\\Version=ES64L-G16RevA.
 03\State=1-AG\HF=-135.3636616\RMSD=8.354e-10\Dipole=0.,0.,0.\Quadrupol
 e=0.,0.,0.,0.,0.,0.\PG=IH [O(Au1)]\\@


 DO YOU KNOW THAT THE LETTERS IN "EPISCOPAL", WHEN
 REARRANGED, SPELL "PEPSI COLA"?
 Job cpu time:       0 days  0 hours  0 minutes  1.2 seconds.
 Elapsed time:       0 days  0 hours  0 minutes  1.1 seconds.
 File lengths (MBytes):  RWF=      6 Int=      0 D2E=      0 Chk=      1 Scr=      1
 Normal termination of Gaussian 16 at Tue Oct 25 18:19:44 2022.
