 Entering Gaussian System, Link 0=/home/zhangjx/ssd/softwares/g16/g16
 Input=Au4L4-nosymm.gjf
 Output=Au4L4-nosymm.log
 Initial command:
 /home/zhangjx/ssd/softwares/g16/l1.exe "/home/zhangjx/ssd/scratch/Gau-812210.inp" -scrdir="/home/zhangjx/ssd/scratch/"
 Entering Link 1 = /home/zhangjx/ssd/softwares/g16/l1.exe PID=    812211.
  
 Copyright (c) 1988,1990,1992,1993,1995,1998,2003,2009,2016,
            Gaussian, Inc.  All Rights Reserved.
  
 This is part of the Gaussian(R) 16 program.  It is based on
 the Gaussian(R) 09 system (copyright 2009, Gaussian, Inc.),
 the Gaussian(R) 03 system (copyright 2003, Gaussian, Inc.),
 the Gaussian(R) 98 system (copyright 1998, Gaussian, Inc.),
 the Gaussian(R) 94 system (copyright 1995, Gaussian, Inc.),
 the Gaussian 92(TM) system (copyright 1992, Gaussian, Inc.),
 the Gaussian 90(TM) system (copyright 1990, Gaussian, Inc.),
 the Gaussian 88(TM) system (copyright 1988, Gaussian, Inc.),
 the Gaussian 86(TM) system (copyright 1986, Carnegie Mellon
 University), and the Gaussian 82(TM) system (copyright 1983,
 Carnegie Mellon University). Gaussian is a federally registered
 trademark of Gaussian, Inc.
  
 This software contains proprietary and confidential information,
 including trade secrets, belonging to Gaussian, Inc.
  
 This software is provided under written license and may be
 used, copied, transmitted, or stored only in accord with that
 written license.
  
 The following legend is applicable only to US Government
 contracts under FAR:
  
                    RESTRICTED RIGHTS LEGEND
  
 Use, reproduction and disclosure by the US Government is
 subject to restrictions as set forth in subparagraphs (a)
 and (c) of the Commercial Computer Software - Restricted
 Rights clause in FAR 52.227-19.
  
 Gaussian, Inc.
 340 Quinnipiac St., Bldg. 40, Wallingford CT 06492
  
  
 ---------------------------------------------------------------
 Warning -- This program may not be used in any manner that
 competes with the business of Gaussian, Inc. or will provide
 assistance to any competitor of Gaussian, Inc.  The licensee
 of this program is prohibited from giving any competitor of
 Gaussian, Inc. access to this program.  By using this program,
 the user acknowledges that Gaussian, Inc. is engaged in the
 business of creating and licensing software in the field of
 computational chemistry and represents and warrants to the
 licensee that it is not a competitor of Gaussian, Inc. and that
 it will not use this program in any manner prohibited above.
 ---------------------------------------------------------------
  

 Cite this work as:
 Gaussian 16, Revision A.03,
 M. J. Frisch, G. W. Trucks, H. B. Schlegel, G. E. Scuseria, 
 M. A. Robb, J. R. Cheeseman, G. Scalmani, V. Barone, 
 G. A. Petersson, H. Nakatsuji, X. Li, M. Caricato, A. V. Marenich, 
 J. Bloino, B. G. Janesko, R. Gomperts, B. Mennucci, H. P. Hratchian, 
 J. V. Ortiz, A. F. Izmaylov, J. L. Sonnenberg, D. Williams-Young, 
 F. Ding, F. Lipparini, F. Egidi, J. Goings, B. Peng, A. Petrone, 
 T. Henderson, D. Ranasinghe, V. G. Zakrzewski, J. Gao, N. Rega, 
 G. Zheng, W. Liang, M. Hada, M. Ehara, K. Toyota, R. Fukuda, 
 J. Hasegawa, M. Ishida, T. Nakajima, Y. Honda, O. Kitao, H. Nakai, 
 T. Vreven, K. Throssell, J. A. Montgomery, Jr., J. E. Peralta, 
 F. Ogliaro, M. J. Bearpark, J. J. Heyd, E. N. Brothers, K. N. Kudin, 
 V. N. Staroverov, T. A. Keith, R. Kobayashi, J. Normand, 
 K. Raghavachari, A. P. Rendell, J. C. Burant, S. S. Iyengar, 
 J. Tomasi, M. Cossi, J. M. Millam, M. Klene, C. Adamo, R. Cammi, 
 J. W. Ochterski, R. L. Martin, K. Morokuma, O. Farkas, 
 J. B. Foresman, and D. J. Fox, Gaussian, Inc., Wallingford CT, 2016.
 
 ******************************************
 Gaussian 16:  ES64L-G16RevA.03 25-Dec-2016
                25-Oct-2022 
 ******************************************
 %chk=Au4L4-nosymm.chk
 %nprocs=4
 Will use up to    4 processors via shared memory.
 %mem=2GB
 ----------------------------------------------------
 #p pbe1pbe/def2TZVP pop=nboread int=ultrafine nosymm
 ----------------------------------------------------
 1/38=1,172=1/1;
 2/12=2,15=1,17=6,18=5,40=1/2;
 3/5=44,7=101,11=2,25=1,30=1,74=-13,75=-5/1,2,3;
 4//1;
 5/5=2,38=5/2;
 6/7=2,8=2,9=2,10=2,28=1,40=2/1,7;
 99/5=1,9=1/99;
 Leave Link    1 at Tue Oct 25 18:14:59 2022, MaxMem=   268435456 cpu:               0.0 elap:               0.0
 (Enter /home/zhangjx/ssd/softwares/g16/l101.exe)
 ------------
 Au4L4-nosymm
 ------------
 Symbolic Z-matrix:
 Charge =  2 Multiplicity = 1
 Au                    0.98781   0.98781   0.98781 
 Au                   -0.98781  -0.98781   0.98781 
 Au                    0.98781  -0.98781  -0.98781 
 Au                   -0.98781   0.98781  -0.98781 
 P                     2.33877   2.33877   2.33877 
 H                     3.21543   1.65932   3.21543 
 H                     3.21543   3.21543   1.65932 
 H                     1.65932   3.21543   3.21543 
 P                    -2.33877  -2.33877   2.33877 
 H                    -3.21543  -3.21543   1.65932 
 H                    -1.65932  -3.21543   3.21543 
 H                    -3.21543  -1.65932   3.21543 
 P                     2.33877  -2.33877  -2.33877 
 H                     3.21543  -3.21543  -1.65932 
 H                     1.65932  -3.21543  -3.21543 
 H                     3.21543  -1.65932  -3.21543 
 P                    -2.33877   2.33877  -2.33877 
 H                    -1.65932   3.21543  -3.21543 
 H                    -3.21543   1.65932  -3.21543 
 H                    -3.21543   3.21543  -1.65932 
 
 ITRead=  0  0  0  0  0  0  0  0  0  0  0  0  0  0  0  0  0  0  0  0
 MicOpt= -1 -1 -1 -1 -1 -1 -1 -1 -1 -1 -1 -1 -1 -1 -1 -1 -1 -1 -1 -1
 NAtoms=     20 NQM=       20 NQMF=       0 NMMI=      0 NMMIF=      0
                NMic=       0 NMicF=      0.
                    Isotopes and Nuclear Properties:
 (Nuclear quadrupole moments (NQMom) in fm**2, nuclear magnetic moments (NMagM)
  in nuclear magnetons)

  Atom         1           2           3           4           5           6           7           8           9          10
 IAtWgt=         197         197         197         197          31           1           1           1          31           1
 AtmWgt= 196.9666000 196.9666000 196.9666000 196.9666000  30.9737634   1.0078250   1.0078250   1.0078250  30.9737634   1.0078250
 NucSpn=           3           3           3           3           1           1           1           1           1           1
 AtZEff=  -0.0000000  -0.0000000  -0.0000000  -0.0000000  -0.0000000  -0.0000000  -0.0000000  -0.0000000  -0.0000000  -0.0000000
 NQMom=   54.7000000  54.7000000  54.7000000  54.7000000   0.0000000   0.0000000   0.0000000   0.0000000   0.0000000   0.0000000
 NMagM=    0.1481590   0.1481590   0.1481590   0.1481590   1.1316000   2.7928460   2.7928460   2.7928460   1.1316000   2.7928460
 AtZNuc=  79.0000000  79.0000000  79.0000000  79.0000000  15.0000000   1.0000000   1.0000000   1.0000000  15.0000000   1.0000000

  Atom        11          12          13          14          15          16          17          18          19          20
 IAtWgt=           1           1          31           1           1           1          31           1           1           1
 AtmWgt=   1.0078250   1.0078250  30.9737634   1.0078250   1.0078250   1.0078250  30.9737634   1.0078250   1.0078250   1.0078250
 NucSpn=           1           1           1           1           1           1           1           1           1           1
 AtZEff=  -0.0000000  -0.0000000  -0.0000000  -0.0000000  -0.0000000  -0.0000000  -0.0000000  -0.0000000  -0.0000000  -0.0000000
 NQMom=    0.0000000   0.0000000   0.0000000   0.0000000   0.0000000   0.0000000   0.0000000   0.0000000   0.0000000   0.0000000
 NMagM=    2.7928460   2.7928460   1.1316000   2.7928460   2.7928460   2.7928460   1.1316000   2.7928460   2.7928460   2.7928460
 AtZNuc=   1.0000000   1.0000000  15.0000000   1.0000000   1.0000000   1.0000000  15.0000000   1.0000000   1.0000000   1.0000000
 Leave Link  101 at Tue Oct 25 18:14:59 2022, MaxMem=   268435456 cpu:               0.3 elap:               0.1
 (Enter /home/zhangjx/ssd/softwares/g16/l202.exe)
                          Input orientation:                          
 ---------------------------------------------------------------------
 Center     Atomic      Atomic             Coordinates (Angstroms)
 Number     Number       Type             X           Y           Z
 ---------------------------------------------------------------------
      1         79           0        0.987805    0.987805    0.987805
      2         79           0       -0.987805   -0.987805    0.987805
      3         79           0        0.987805   -0.987805   -0.987805
      4         79           0       -0.987805    0.987805   -0.987805
      5         15           0        2.338767    2.338767    2.338767
      6          1           0        3.215425    1.659319    3.215425
      7          1           0        3.215425    3.215425    1.659319
      8          1           0        1.659319    3.215425    3.215425
      9         15           0       -2.338767   -2.338767    2.338767
     10          1           0       -3.215425   -3.215425    1.659319
     11          1           0       -1.659319   -3.215425    3.215425
     12          1           0       -3.215425   -1.659319    3.215425
     13         15           0        2.338767   -2.338767   -2.338767
     14          1           0        3.215425   -3.215425   -1.659319
     15          1           0        1.659319   -3.215425   -3.215425
     16          1           0        3.215425   -1.659319   -3.215425
     17         15           0       -2.338767    2.338767   -2.338767
     18          1           0       -1.659319    3.215425   -3.215425
     19          1           0       -3.215425    1.659319   -3.215425
     20          1           0       -3.215425    3.215425   -1.659319
 ---------------------------------------------------------------------
                    Distance matrix (angstroms):
                    1          2          3          4          5
     1  Au   0.000000
     2  Au   2.793934   0.000000
     3  Au   2.793934   2.793934   0.000000
     4  Au   2.793934   2.793934   2.793934   0.000000
     5  P    2.339935   4.894615   4.894615   4.894615   0.000000
     6  H    3.221104   5.443960   5.443960   5.982075   1.413757
     7  H    3.221104   5.982075   5.443960   5.443960   1.413757
     8  H    3.221104   5.443960   5.982075   5.443960   1.413757
     9  P    4.894615   2.339935   4.894615   4.894615   6.615032
    10  H    5.982075   3.221104   5.443960   5.443960   7.884145
    11  H    5.443960   3.221104   5.443960   5.982075   6.899440
    12  H    5.443960   3.221104   5.982075   5.443960   6.899440
    13  P    4.894615   4.894615   2.339935   4.894615   6.615032
    14  H    5.443960   5.443960   3.221104   5.982075   6.899440
    15  H    5.982075   5.443960   3.221104   5.443960   7.884145
    16  H    5.443960   5.982075   3.221104   5.443960   6.899440
    17  P    4.894615   4.894615   4.894615   2.339935   6.615032
    18  H    5.443960   5.982075   5.443960   3.221104   6.899440
    19  H    5.982075   5.443960   5.443960   3.221104   7.884145
    20  H    5.443960   5.443960   5.982075   3.221104   6.899440
                    6          7          8          9         10
     6  H    0.000000
     7  H    2.200666   0.000000
     8  H    2.200666   2.200666   0.000000
     9  P    6.899440   7.884145   6.899440   0.000000
    10  H    8.218298   9.094595   8.218298   1.413757   0.000000
    11  H    6.893929   8.218298   7.236656   1.413757   2.200666
    12  H    7.236656   8.218298   6.893929   1.413757   2.200666
    13  P    6.899440   6.899440   7.884145   6.615032   6.899440
    14  H    6.893929   7.236656   8.218298   6.899440   7.236656
    15  H    8.218298   8.218298   9.094595   6.899440   6.893929
    16  H    7.236656   6.893929   8.218298   7.884145   8.218298
    17  P    7.884145   6.899440   6.899440   6.615032   6.899440
    18  H    8.218298   6.893929   7.236656   7.884145   8.218298
    19  H    9.094595   8.218298   8.218298   6.899440   6.893929
    20  H    8.218298   7.236656   6.893929   6.899440   7.236656
                   11         12         13         14         15
    11  H    0.000000
    12  H    2.200666   0.000000
    13  P    6.899440   7.884145   0.000000
    14  H    6.893929   8.218298   1.413757   0.000000
    15  H    7.236656   8.218298   1.413757   2.200666   0.000000
    16  H    8.218298   9.094595   1.413757   2.200666   2.200666
    17  P    7.884145   6.899440   6.615032   7.884145   6.899440
    18  H    9.094595   8.218298   6.899440   8.218298   7.236656
    19  H    8.218298   7.236656   6.899440   8.218298   6.893929
    20  H    8.218298   6.893929   7.884145   9.094595   8.218298
                   16         17         18         19         20
    16  H    0.000000
    17  P    6.899440   0.000000
    18  H    6.893929   1.413757   0.000000
    19  H    7.236656   1.413757   2.200666   0.000000
    20  H    8.218298   1.413757   2.200666   2.200666   0.000000
 Symmetry turned off by external request.
 Stoichiometry    Au4H12P4(2+)
 Framework group  TD[4C3(.AuP),6SGD(H2)]
 Deg. of freedom     4
 Full point group                 TD      NOp  24
 Rotational constants (GHZ):           0.1639871           0.1639871           0.1639871
 Leave Link  202 at Tue Oct 25 18:14:59 2022, MaxMem=   268435456 cpu:               0.0 elap:               0.0
 (Enter /home/zhangjx/ssd/softwares/g16/l301.exe)
 Standard basis: def2TZVP (5D, 7F)
 Ernie: Thresh=  0.10000D-02 Tol=  0.10000D-05 Strict=F.
   380 basis functions,   672 primitive gaussians,   424 cartesian basis functions
    73 alpha electrons       73 beta electrons
       nuclear repulsion energy      1361.3994396785 Hartrees.
 IExCor= 1009 DFT=T Ex+Corr=PBE1PBE ExCW=0 ScaHFX=  0.250000
 ScaDFX=  0.750000  0.750000  1.000000  1.000000 ScalE2=  1.000000  1.000000
 IRadAn=      5 IRanWt=     -1 IRanGd=            0 ICorTp=0 IEmpDi=  4
 NAtoms=   20 NActive=   20 NUniq=   20 SFac= 1.00D+00 NAtFMM=   60 NAOKFM=F Big=F
 Integral buffers will be    131072 words long.
 Raffenetti 2 integral format.
 Two-electron integral symmetry is turned off.
 Leave Link  301 at Tue Oct 25 18:14:59 2022, MaxMem=   268435456 cpu:               0.1 elap:               0.0
 (Enter /home/zhangjx/ssd/softwares/g16/l302.exe)
 NPDir=0 NMtPBC=     1 NCelOv=     1 NCel=       1 NClECP=     1 NCelD=      1
         NCelK=      1 NCelE2=     1 NClLst=     1 CellRange=     0.0.
 One-electron integrals computed using PRISM.
   1 Symmetry operations used in ECPInt.
 ECPInt:  NShTT=   12246 NPrTT=   36286 LenC2=   10485 LenP2D=   22158.
 LDataN:  DoStor=T MaxTD1= 7 Len=  274
 GSVD:  received Info=                   1 from GESDD.
 NBasis=   380 RedAO= T EigKep=  1.11D-03  NBF=   380
 NBsUse=   380 1.00D-06 EigRej= -1.00D+00 NBFU=   380
 Precomputing XC quadrature grid using
 IXCGrd= 4 IRadAn=           5 IRanWt=          -1 IRanGd=           0 AccXCQ= 0.00D+00.
 Defaulting to unpruned grid for atomic number  79.
 Generated NRdTot=       0 NPtTot=           0 NUsed=           0 NTot=          32
 NSgBfM=   414   414   414   414   414 MxSgAt=    20 MxSgA2=    20.
 Leave Link  302 at Tue Oct 25 18:15:00 2022, MaxMem=   268435456 cpu:               2.7 elap:               0.7
 (Enter /home/zhangjx/ssd/softwares/g16/l303.exe)
 DipDrv:  MaxL=1.
 Leave Link  303 at Tue Oct 25 18:15:00 2022, MaxMem=   268435456 cpu:               0.1 elap:               0.0
 (Enter /home/zhangjx/ssd/softwares/g16/l401.exe)
 ExpMin= 4.50D-02 ExpMax= 5.24D+04 ExpMxC= 1.79D+03 IAcc=3 IRadAn=         5 AccDes= 0.00D+00
 Harris functional with IExCor= 1009 and IRadAn=       5 diagonalized for initial guess.
 HarFok:  IExCor= 1009 AccDes= 0.00D+00 IRadAn=         5 IDoV= 1 UseB2=F ITyADJ=14
 ICtDFT=  3500011 ScaDFX=  1.000000  1.000000  1.000000  1.000000
 Defaulting to unpruned grid for atomic number  79.
 FoFCou: FMM=F IPFlag=           0 FMFlag=      100000 FMFlg1=           0
         NFxFlg=           0 DoJE=T BraDBF=F KetDBF=T FulRan=T
         wScrn=  0.000000 ICntrl=       500 IOpCl=  0 I1Cent=   200000004 NGrid=           0
         NMat0=    1 NMatS0=      1 NMatT0=    0 NMatD0=    1 NMtDS0=    0 NMtDT0=    0
 Symmetry not used in FoFCou.
 Harris En= -1914.45123602541    
 JPrj=0 DoOrth=F DoCkMO=F.
 Leave Link  401 at Tue Oct 25 18:15:02 2022, MaxMem=   268435456 cpu:               8.1 elap:               2.0
 (Enter /home/zhangjx/ssd/softwares/g16/l502.exe)
 Two-electron integral symmetry not used.
 Closed shell SCF:
 Using DIIS extrapolation, IDIIS=  1040.
 NGot=   268435456 LenX=   268070448 LenY=   267890231
 Requested convergence on RMS density matrix=1.00D-08 within 128 cycles.
 Requested convergence on MAX density matrix=1.00D-06.
 Requested convergence on             energy=1.00D-06.
 No special actions if energy rises.
 Fock matrices will be formed incrementally for  20 cycles.

 Cycle   1  Pass 1  IDiag  1:
 FoFJK:  IHMeth= 1 ICntrl=       0 DoSepK=F KAlg= 0 I1Cent=           0 FoldK=F
 IRaf= 770000000 NMat=       1 IRICut=       1 DoRegI=T DoRafI=F ISym2E= 0 IDoP0=0 IntGTp=1.
 FoFCou: FMM=F IPFlag=           0 FMFlag=      100000 FMFlg1=           0
         NFxFlg=           0 DoJE=F BraDBF=F KetDBF=F FulRan=T
         wScrn=  0.000000 ICntrl=         0 IOpCl=  0 I1Cent=           0 NGrid=           0
         NMat0=    1 NMatS0=      1 NMatT0=    0 NMatD0=    1 NMtDS0=    0 NMtDT0=    0
 Symmetry not used in FoFCou.
 Defaulting to unpruned grid for atomic number  79.
 Defaulting to unpruned grid for atomic number  79.
 Defaulting to unpruned grid for atomic number  79.
 Defaulting to unpruned grid for atomic number  79.
 E= -1913.02968143718    
 DIIS: error= 6.89D-02 at cycle   1 NSaved=   1.
 NSaved= 1 IEnMin= 1 EnMin= -1913.02968143718     IErMin= 1 ErrMin= 6.89D-02
 ErrMax= 6.89D-02  0.00D+00 EMaxC= 1.00D-01 BMatC= 2.46D+00 BMatP= 2.46D+00
 IDIUse=3 WtCom= 3.11D-01 WtEn= 6.89D-01
 Coeff-Com:  0.100D+01
 Coeff-En:   0.100D+01
 Coeff:      0.100D+01
 Gap=     0.504 Goal=   None    Shift=    0.000
 GapD=    0.504 DampG=2.000 DampE=0.250 DampFc=0.5000 IDamp=-1.
 Damping current iteration by 5.00D-01
 RMSDP=1.10D-02 MaxDP=7.34D-01              OVMax= 5.01D-01

 Cycle   2  Pass 1  IDiag  1:
 RMSU=  5.35D-03    CP:  1.07D+00
 E= -1913.34812148859     Delta-E=       -0.318440051409 Rises=F Damp=T
 DIIS: error= 2.71D-02 at cycle   2 NSaved=   2.
 NSaved= 2 IEnMin= 2 EnMin= -1913.34812148859     IErMin= 2 ErrMin= 2.71D-02
 ErrMax= 2.71D-02  0.00D+00 EMaxC= 1.00D-01 BMatC= 3.76D-01 BMatP= 2.46D+00
 IDIUse=3 WtCom= 7.29D-01 WtEn= 2.71D-01
 Coeff-Com:  0.240D+00 0.760D+00
 Coeff-En:   0.421D+00 0.579D+00
 Coeff:      0.289D+00 0.711D+00
 Gap=     0.331 Goal=   None    Shift=    0.000
 RMSDP=5.79D-03 MaxDP=3.59D-01 DE=-3.18D-01 OVMax= 5.02D-01

 Cycle   3  Pass 1  IDiag  1:
 RMSU=  3.73D-03    CP:  9.95D-01  2.16D-01
 E= -1914.63959424948     Delta-E=       -1.291472760895 Rises=F Damp=F
 DIIS: error= 1.68D-02 at cycle   3 NSaved=   3.
 NSaved= 3 IEnMin= 3 EnMin= -1914.63959424948     IErMin= 3 ErrMin= 1.68D-02
 ErrMax= 1.68D-02  0.00D+00 EMaxC= 1.00D-01 BMatC= 1.67D-01 BMatP= 3.76D-01
 IDIUse=3 WtCom= 8.32D-01 WtEn= 1.68D-01
 Coeff-Com:  0.148D+00 0.365D+00 0.487D+00
 Coeff-En:   0.000D+00 0.000D+00 0.100D+01
 Coeff:      0.123D+00 0.304D+00 0.573D+00
 Gap=     0.224 Goal=   None    Shift=    0.000
 RMSDP=1.34D-03 MaxDP=6.50D-02 DE=-1.29D+00 OVMax= 5.20D-02

 Cycle   4  Pass 1  IDiag  1:
 RMSU=  1.10D-03    CP:  9.90D-01  2.27D-01  7.97D-01
 E= -1914.74050770252     Delta-E=       -0.100913453035 Rises=F Damp=F
 DIIS: error= 6.24D-03 at cycle   4 NSaved=   4.
 NSaved= 4 IEnMin= 4 EnMin= -1914.74050770252     IErMin= 4 ErrMin= 6.24D-03
 ErrMax= 6.24D-03  0.00D+00 EMaxC= 1.00D-01 BMatC= 1.35D-02 BMatP= 1.67D-01
 IDIUse=3 WtCom= 9.38D-01 WtEn= 6.24D-02
 Coeff-Com:  0.148D-01-0.112D-01 0.220D+00 0.777D+00
 Coeff-En:   0.000D+00 0.000D+00 0.000D+00 0.100D+01
 Coeff:      0.139D-01-0.105D-01 0.206D+00 0.791D+00
 Gap=     0.217 Goal=   None    Shift=    0.000
 RMSDP=3.79D-04 MaxDP=2.40D-02 DE=-1.01D-01 OVMax= 1.41D-02

 Cycle   5  Pass 1  IDiag  1:
 RMSU=  2.11D-04    CP:  9.87D-01  2.17D-01  8.66D-01  8.51D-01
 E= -1914.74831875772     Delta-E=       -0.007811055201 Rises=F Damp=F
 DIIS: error= 1.02D-03 at cycle   5 NSaved=   5.
 NSaved= 5 IEnMin= 5 EnMin= -1914.74831875772     IErMin= 5 ErrMin= 1.02D-03
 ErrMax= 1.02D-03  0.00D+00 EMaxC= 1.00D-01 BMatC= 7.09D-04 BMatP= 1.35D-02
 IDIUse=3 WtCom= 9.90D-01 WtEn= 1.02D-02
 Coeff-Com:  0.375D-02-0.192D-01 0.639D-01 0.322D+00 0.630D+00
 Coeff-En:   0.000D+00 0.000D+00 0.000D+00 0.000D+00 0.100D+01
 Coeff:      0.371D-02-0.190D-01 0.633D-01 0.318D+00 0.634D+00
 Gap=     0.216 Goal=   None    Shift=    0.000
 RMSDP=9.84D-05 MaxDP=5.69D-03 DE=-7.81D-03 OVMax= 5.75D-03

 Cycle   6  Pass 1  IDiag  1:
 RMSU=  7.09D-05    CP:  9.86D-01  2.07D-01  8.70D-01  8.58D-01  8.27D-01
 E= -1914.74906251441     Delta-E=       -0.000743756696 Rises=F Damp=F
 DIIS: error= 1.26D-04 at cycle   6 NSaved=   6.
 NSaved= 6 IEnMin= 6 EnMin= -1914.74906251441     IErMin= 6 ErrMin= 1.26D-04
 ErrMax= 1.26D-04  0.00D+00 EMaxC= 1.00D-01 BMatC= 8.19D-06 BMatP= 7.09D-04
 IDIUse=3 WtCom= 9.99D-01 WtEn= 1.26D-03
 Coeff-Com:  0.244D-03-0.878D-03 0.317D-02 0.410D-02 0.772D-01 0.916D+00
 Coeff-En:   0.000D+00 0.000D+00 0.000D+00 0.000D+00 0.000D+00 0.100D+01
 Coeff:      0.243D-03-0.877D-03 0.317D-02 0.409D-02 0.771D-01 0.916D+00
 Gap=     0.216 Goal=   None    Shift=    0.000
 DSYEVD-2 returned Info=      127253 IAlg= 4 N=   380 NDim=   380 NE2=      704973 trying  DSYEV.
 RMSDP=1.76D-05 MaxDP=1.17D-03 DE=-7.44D-04 OVMax= 9.56D-04

 Cycle   7  Pass 1  IDiag  1:
 RMSU=  9.84D-06    CP:  9.86D-01  2.06D-01  8.72D-01  8.54D-01  8.41D-01
                    CP:  1.11D+00
 E= -1914.74906841956     Delta-E=       -0.000005905141 Rises=F Damp=F
 DIIS: error= 3.72D-05 at cycle   7 NSaved=   7.
 NSaved= 7 IEnMin= 7 EnMin= -1914.74906841956     IErMin= 7 ErrMin= 3.72D-05
 ErrMax= 3.72D-05  0.00D+00 EMaxC= 1.00D-01 BMatC= 5.63D-07 BMatP= 8.19D-06
 IDIUse=1 WtCom= 1.00D+00 WtEn= 0.00D+00
 Coeff-Com: -0.668D-04-0.180D-03-0.733D-03-0.556D-02 0.176D-01 0.315D+00
 Coeff-Com:  0.674D+00
 Coeff:     -0.668D-04-0.180D-03-0.733D-03-0.556D-02 0.176D-01 0.315D+00
 Coeff:      0.674D+00
 Gap=     0.216 Goal=   None    Shift=    0.000
 RMSDP=2.54D-06 MaxDP=4.95D-05 DE=-5.91D-06 OVMax= 1.82D-04

 Cycle   8  Pass 1  IDiag  1:
 RMSU=  2.02D-06    CP:  9.86D-01  2.06D-01  8.73D-01  8.55D-01  8.44D-01
                    CP:  1.11D+00  9.67D-01
 E= -1914.74906913269     Delta-E=       -0.000000713135 Rises=F Damp=F
 DIIS: error= 9.19D-06 at cycle   8 NSaved=   8.
 NSaved= 8 IEnMin= 8 EnMin= -1914.74906913269     IErMin= 8 ErrMin= 9.19D-06
 ErrMax= 9.19D-06  0.00D+00 EMaxC= 1.00D-01 BMatC= 3.61D-08 BMatP= 5.63D-07
 IDIUse=1 WtCom= 1.00D+00 WtEn= 0.00D+00
 Coeff-Com:  0.212D-04 0.476D-04-0.759D-03-0.283D-02-0.333D-02-0.256D-02
 Coeff-Com:  0.975D-01 0.912D+00
 Coeff:      0.212D-04 0.476D-04-0.759D-03-0.283D-02-0.333D-02-0.256D-02
 Coeff:      0.975D-01 0.912D+00
 Gap=     0.216 Goal=   None    Shift=    0.000
 RMSDP=1.07D-06 MaxDP=5.92D-05 DE=-7.13D-07 OVMax= 4.33D-05

 Cycle   9  Pass 1  IDiag  1:
 RMSU=  3.66D-07    CP:  9.86D-01  2.06D-01  8.73D-01  8.55D-01  8.46D-01
                    CP:  1.12D+00  1.01D+00  9.94D-01
 E= -1914.74906916593     Delta-E=       -0.000000033240 Rises=F Damp=F
 DIIS: error= 1.00D-06 at cycle   9 NSaved=   9.
 NSaved= 9 IEnMin= 9 EnMin= -1914.74906916593     IErMin= 9 ErrMin= 1.00D-06
 ErrMax= 1.00D-06  0.00D+00 EMaxC= 1.00D-01 BMatC= 6.05D-10 BMatP= 3.61D-08
 IDIUse=1 WtCom= 1.00D+00 WtEn= 0.00D+00
 Coeff-Com:  0.129D-04 0.215D-05-0.570D-04-0.211D-03-0.783D-03-0.399D-02
 Coeff-Com: -0.622D-02 0.103D+00 0.908D+00
 Coeff:      0.129D-04 0.215D-05-0.570D-04-0.211D-03-0.783D-03-0.399D-02
 Coeff:     -0.622D-02 0.103D+00 0.908D+00
 Gap=     0.216 Goal=   None    Shift=    0.000
 DSYEVD-2 returned Info=      127253 IAlg= 4 N=   380 NDim=   380 NE2=      704973 trying  DSYEV.
 RMSDP=1.25D-07 MaxDP=4.69D-06 DE=-3.32D-08 OVMax= 7.90D-06

 Cycle  10  Pass 1  IDiag  1:
 RMSU=  4.32D-08    CP:  9.86D-01  2.06D-01  8.73D-01  8.55D-01  8.46D-01
                    CP:  1.12D+00  1.01D+00  1.01D+00  1.02D+00
 E= -1914.74906916665     Delta-E=       -0.000000000723 Rises=F Damp=F
 DIIS: error= 2.44D-07 at cycle  10 NSaved=  10.
 NSaved=10 IEnMin=10 EnMin= -1914.74906916665     IErMin=10 ErrMin= 2.44D-07
 ErrMax= 2.44D-07  0.00D+00 EMaxC= 1.00D-01 BMatC= 2.77D-11 BMatP= 6.05D-10
 IDIUse=1 WtCom= 1.00D+00 WtEn= 0.00D+00
 Coeff-Com: -0.938D-06-0.181D-06 0.140D-04 0.751D-04 0.939D-04-0.536D-04
 Coeff-Com: -0.107D-02-0.151D-01 0.901D-01 0.926D+00
 Coeff:     -0.938D-06-0.181D-06 0.140D-04 0.751D-04 0.939D-04-0.536D-04
 Coeff:     -0.107D-02-0.151D-01 0.901D-01 0.926D+00
 Gap=     0.216 Goal=   None    Shift=    0.000
 DSYEVD-2 returned Info=         761 IAlg= 4 N=   380 NDim=   380 NE2=      704973 trying  DSYEV.
 RMSDP=2.14D-08 MaxDP=1.01D-06 DE=-7.23D-10 OVMax= 1.62D-06

 Cycle  11  Pass 1  IDiag  1:
 RMSU=  6.68D-09    CP:  9.86D-01  2.06D-01  8.73D-01  8.55D-01  8.46D-01
                    CP:  1.12D+00  1.02D+00  1.01D+00  1.05D+00  1.04D+00
 E= -1914.74906916670     Delta-E=       -0.000000000046 Rises=F Damp=F
 DIIS: error= 2.77D-08 at cycle  11 NSaved=  11.
 NSaved=11 IEnMin=11 EnMin= -1914.74906916670     IErMin=11 ErrMin= 2.77D-08
 ErrMax= 2.77D-08  0.00D+00 EMaxC= 1.00D-01 BMatC= 1.30D-13 BMatP= 2.77D-11
 IDIUse=1 WtCom= 1.00D+00 WtEn= 0.00D+00
 Coeff-Com: -0.200D-06 0.298D-07 0.155D-05 0.362D-05 0.125D-04 0.449D-04
 Coeff-Com: -0.137D-03-0.326D-02-0.125D-01 0.500D-02 0.101D+01
 Coeff:     -0.200D-06 0.298D-07 0.155D-05 0.362D-05 0.125D-04 0.449D-04
 Coeff:     -0.137D-03-0.326D-02-0.125D-01 0.500D-02 0.101D+01
 Gap=     0.216 Goal=   None    Shift=    0.000
 RMSDP=3.72D-09 MaxDP=2.22D-07 DE=-4.59D-11 OVMax= 2.39D-07

 SCF Done:  E(RPBE1PBE) =  -1914.74906917     A.U. after   11 cycles
            NFock= 11  Conv=0.37D-08     -V/T= 2.2337
 KE= 1.551982660760D+03 PE=-7.083482212863D+03 EE= 2.255351043258D+03
 Leave Link  502 at Tue Oct 25 18:16:31 2022, MaxMem=   268435456 cpu:             355.0 elap:              89.0
 (Enter /home/zhangjx/ssd/softwares/g16/l601.exe)
 Copying SCF densities to generalized density rwf, IOpCl= 0 IROHF=0.

 **********************************************************************

            Population analysis using the SCF density.

 **********************************************************************

 Alpha  occ. eigenvalues --  -77.48867 -77.48867 -77.48867 -77.48867  -6.88635
 Alpha  occ. eigenvalues --   -6.88635  -6.88635  -6.88635  -5.02154  -5.02154
 Alpha  occ. eigenvalues --   -5.02154  -5.02154  -5.02154  -5.02154  -5.02154
 Alpha  occ. eigenvalues --   -5.02154  -5.01978  -5.01978  -5.01978  -5.01978
 Alpha  occ. eigenvalues --   -4.45344  -4.45315  -4.45315  -4.45315  -2.63381
 Alpha  occ. eigenvalues --   -2.62875  -2.62875  -2.62875  -2.61550  -2.61550
 Alpha  occ. eigenvalues --   -2.61500  -2.61500  -2.61500  -2.61350  -2.61350
 Alpha  occ. eigenvalues --   -2.61350  -0.93203  -0.93067  -0.93067  -0.93067
 Alpha  occ. eigenvalues --   -0.72277  -0.67477  -0.67477  -0.67477  -0.67051
 Alpha  occ. eigenvalues --   -0.67051  -0.66757  -0.66757  -0.66757  -0.65669
 Alpha  occ. eigenvalues --   -0.65669  -0.65669  -0.62101  -0.62101  -0.62101
 Alpha  occ. eigenvalues --   -0.61647  -0.61647  -0.59491  -0.59491  -0.59491
 Alpha  occ. eigenvalues --   -0.57912  -0.56658  -0.56658  -0.56658  -0.56592
 Alpha  occ. eigenvalues --   -0.56592  -0.54701  -0.54701  -0.54701  -0.52552
 Alpha  occ. eigenvalues --   -0.52552  -0.52552  -0.52539
 Alpha virt. eigenvalues --   -0.30971  -0.30971  -0.30971  -0.24688  -0.24688
 Alpha virt. eigenvalues --   -0.20595  -0.20595  -0.20595  -0.20554  -0.20554
 Alpha virt. eigenvalues --   -0.20554  -0.19759  -0.18117  -0.18117  -0.18117
 Alpha virt. eigenvalues --   -0.16364  -0.16364  -0.16364  -0.15322  -0.15322
 Alpha virt. eigenvalues --   -0.11205  -0.11205  -0.11205  -0.10798  -0.07440
 Alpha virt. eigenvalues --   -0.07234  -0.07234  -0.07234  -0.03781  -0.03781
 Alpha virt. eigenvalues --   -0.03781  -0.02719  -0.02719  -0.02719  -0.02321
 Alpha virt. eigenvalues --   -0.02321  -0.01569  -0.01569  -0.01569   0.02025
 Alpha virt. eigenvalues --    0.02025   0.02025   0.02787   0.02787   0.04584
 Alpha virt. eigenvalues --    0.04610   0.04610   0.04610   0.10043   0.10043
 Alpha virt. eigenvalues --    0.10043   0.10857   0.10857   0.10857   0.11281
 Alpha virt. eigenvalues --    0.12688   0.12688   0.12688   0.14925   0.14925
 Alpha virt. eigenvalues --    0.16100   0.16100   0.16100   0.17013   0.17013
 Alpha virt. eigenvalues --    0.17013   0.17551   0.17551   0.17551   0.20761
 Alpha virt. eigenvalues --    0.20761   0.23599   0.23967   0.23967   0.23967
 Alpha virt. eigenvalues --    0.26122   0.26122   0.26122   0.28381   0.28381
 Alpha virt. eigenvalues --    0.28756   0.29438   0.29438   0.29438   0.36582
 Alpha virt. eigenvalues --    0.36582   0.36582   0.39822   0.41735   0.41735
 Alpha virt. eigenvalues --    0.41735   0.41963   0.41963   0.44167   0.44167
 Alpha virt. eigenvalues --    0.44167   0.44439   0.44439   0.44439   0.53210
 Alpha virt. eigenvalues --    0.53210   0.66187   0.66187   0.66187   0.66458
 Alpha virt. eigenvalues --    0.66458   0.66458   0.70557   0.70557   0.70557
 Alpha virt. eigenvalues --    0.84703   0.85693   0.85702   0.85702   0.85702
 Alpha virt. eigenvalues --    0.89540   0.89540   0.89540   0.89693   0.89693
 Alpha virt. eigenvalues --    0.89693   0.91726   0.91726   0.95655   0.95727
 Alpha virt. eigenvalues --    0.95727   0.95727   0.96048   0.96048   0.98188
 Alpha virt. eigenvalues --    0.98188   0.98188   1.00652   1.00652   1.00652
 Alpha virt. eigenvalues --    1.01504   1.01504   1.07085   1.07085   1.07085
 Alpha virt. eigenvalues --    1.09313   1.09313   1.09313   1.12250   1.12994
 Alpha virt. eigenvalues --    1.12994   1.12994   1.14371   1.14371   1.14371
 Alpha virt. eigenvalues --    1.14503   1.14503   1.14503   1.14722   1.14722
 Alpha virt. eigenvalues --    1.22687   1.22687   1.22687   1.25524   1.27355
 Alpha virt. eigenvalues --    1.27355   1.27355   1.30412   1.30412   1.30412
 Alpha virt. eigenvalues --    1.31568   1.31568   1.32460   1.32468   1.32468
 Alpha virt. eigenvalues --    1.32468   1.33911   1.34506   1.34506   1.34506
 Alpha virt. eigenvalues --    1.34695   1.34695   1.34822   1.34822   1.34822
 Alpha virt. eigenvalues --    1.36000   1.36000   1.36000   1.36690   1.37860
 Alpha virt. eigenvalues --    1.37860   1.39726   1.39726   1.39726   1.43179
 Alpha virt. eigenvalues --    1.43179   1.43179   1.44848   1.44848   1.45689
 Alpha virt. eigenvalues --    1.45689   1.45689   1.51327   1.51327   1.51327
 Alpha virt. eigenvalues --    1.54213   1.54213   1.54213   1.55776   1.55776
 Alpha virt. eigenvalues --    1.56135   1.56135   1.56135   1.57591   1.64644
 Alpha virt. eigenvalues --    1.64644   1.64644   1.65695   1.65695   1.65695
 Alpha virt. eigenvalues --    1.67401   1.67401   1.67401   1.69371   1.71465
 Alpha virt. eigenvalues --    1.71465   1.71465   1.72113   1.72113   1.73469
 Alpha virt. eigenvalues --    1.73469   1.73469   1.75621   1.75635   1.75635
 Alpha virt. eigenvalues --    1.75635   1.90007   1.90007   1.90118   1.90118
 Alpha virt. eigenvalues --    1.90118   1.90162   1.90162   1.90162   2.04492
 Alpha virt. eigenvalues --    2.12798   2.12798   2.12798   2.22393   2.24229
 Alpha virt. eigenvalues --    2.24229   2.24229   2.25685   2.31828   2.31828
 Alpha virt. eigenvalues --    2.32279   2.32279   2.32279   2.33808   2.33808
 Alpha virt. eigenvalues --    2.33808   2.47959   2.51190   2.51190   2.51190
 Alpha virt. eigenvalues --    2.59577   2.59577   2.59577   2.59899   2.59899
 Alpha virt. eigenvalues --    2.60158   2.60158   2.60158   2.68970   2.68970
 Alpha virt. eigenvalues --    2.68970   7.11875   7.11875   7.11875   7.13436
 Alpha virt. eigenvalues --    7.13436   7.13436   7.13457   7.13457   7.20123
 Alpha virt. eigenvalues --    7.28621   7.28621   7.28621  13.97495  13.99922
 Alpha virt. eigenvalues --   13.99922  13.99922  23.86868  23.86868  25.56338
 Alpha virt. eigenvalues --   25.56338  25.56338  25.71344  25.71344  25.71344
 Alpha virt. eigenvalues --   28.83655  28.83655  28.83655  29.44798  43.84293
 Alpha virt. eigenvalues --   44.20762  44.20762  44.20762 204.92439 205.09145
 Alpha virt. eigenvalues --  205.09145 205.09145
          Condensed to atoms (all electrons):
               1          2          3          4          5          6
     1  Au  18.800446  -0.028454  -0.028454  -0.028454   0.253894  -0.011834
     2  Au  -0.028454  18.800446  -0.028454  -0.028454  -0.019682   0.000969
     3  Au  -0.028454  -0.028454  18.800446  -0.028454  -0.019682   0.000969
     4  Au  -0.028454  -0.028454  -0.028454  18.800446  -0.019682  -0.000172
     5  P    0.253894  -0.019682  -0.019682  -0.019682  13.845673   0.363458
     6  H   -0.011834   0.000969   0.000969  -0.000172   0.363458   0.498192
     7  H   -0.011834  -0.000172   0.000969   0.000969   0.363458  -0.011001
     8  H   -0.011834   0.000969  -0.000172   0.000969   0.363458  -0.011001
     9  P   -0.019682   0.253894  -0.019682  -0.019682   0.000238  -0.000007
    10  H   -0.000172  -0.011834   0.000969   0.000969  -0.000000   0.000000
    11  H    0.000969  -0.011834   0.000969  -0.000172  -0.000007   0.000000
    12  H    0.000969  -0.011834  -0.000172   0.000969  -0.000007   0.000000
    13  P   -0.019682  -0.019682   0.253894  -0.019682   0.000238  -0.000007
    14  H    0.000969   0.000969  -0.011834  -0.000172  -0.000007   0.000000
    15  H   -0.000172   0.000969  -0.011834   0.000969  -0.000000   0.000000
    16  H    0.000969  -0.000172  -0.011834   0.000969  -0.000007   0.000000
    17  P   -0.019682  -0.019682  -0.019682   0.253894   0.000238  -0.000000
    18  H    0.000969  -0.000172   0.000969  -0.011834  -0.000007   0.000000
    19  H   -0.000172   0.000969   0.000969  -0.011834  -0.000000  -0.000000
    20  H    0.000969   0.000969  -0.000172  -0.011834  -0.000007   0.000000
               7          8          9         10         11         12
     1  Au  -0.011834  -0.011834  -0.019682  -0.000172   0.000969   0.000969
     2  Au  -0.000172   0.000969   0.253894  -0.011834  -0.011834  -0.011834
     3  Au   0.000969  -0.000172  -0.019682   0.000969   0.000969  -0.000172
     4  Au   0.000969   0.000969  -0.019682   0.000969  -0.000172   0.000969
     5  P    0.363458   0.363458   0.000238  -0.000000  -0.000007  -0.000007
     6  H   -0.011001  -0.011001  -0.000007   0.000000   0.000000   0.000000
     7  H    0.498192  -0.011001  -0.000000  -0.000000   0.000000   0.000000
     8  H   -0.011001   0.498192  -0.000007   0.000000   0.000000   0.000000
     9  P   -0.000000  -0.000007  13.845673   0.363458   0.363458   0.363458
    10  H   -0.000000   0.000000   0.363458   0.498192  -0.011001  -0.011001
    11  H    0.000000   0.000000   0.363458  -0.011001   0.498192  -0.011001
    12  H    0.000000   0.000000   0.363458  -0.011001  -0.011001   0.498192
    13  P   -0.000007  -0.000000   0.000238  -0.000007  -0.000007  -0.000000
    14  H    0.000000   0.000000  -0.000007   0.000000   0.000000   0.000000
    15  H    0.000000  -0.000000  -0.000007   0.000000   0.000000   0.000000
    16  H    0.000000   0.000000  -0.000000   0.000000   0.000000  -0.000000
    17  P   -0.000007  -0.000007   0.000238  -0.000007  -0.000000  -0.000007
    18  H    0.000000   0.000000  -0.000000   0.000000  -0.000000   0.000000
    19  H    0.000000   0.000000  -0.000007   0.000000   0.000000   0.000000
    20  H    0.000000   0.000000  -0.000007   0.000000   0.000000   0.000000
              13         14         15         16         17         18
     1  Au  -0.019682   0.000969  -0.000172   0.000969  -0.019682   0.000969
     2  Au  -0.019682   0.000969   0.000969  -0.000172  -0.019682  -0.000172
     3  Au   0.253894  -0.011834  -0.011834  -0.011834  -0.019682   0.000969
     4  Au  -0.019682  -0.000172   0.000969   0.000969   0.253894  -0.011834
     5  P    0.000238  -0.000007  -0.000000  -0.000007   0.000238  -0.000007
     6  H   -0.000007   0.000000   0.000000   0.000000  -0.000000   0.000000
     7  H   -0.000007   0.000000   0.000000   0.000000  -0.000007   0.000000
     8  H   -0.000000   0.000000  -0.000000   0.000000  -0.000007   0.000000
     9  P    0.000238  -0.000007  -0.000007  -0.000000   0.000238  -0.000000
    10  H   -0.000007   0.000000   0.000000   0.000000  -0.000007   0.000000
    11  H   -0.000007   0.000000   0.000000   0.000000  -0.000000  -0.000000
    12  H   -0.000000   0.000000   0.000000  -0.000000  -0.000007   0.000000
    13  P   13.845673   0.363458   0.363458   0.363458   0.000238  -0.000007
    14  H    0.363458   0.498192  -0.011001  -0.011001  -0.000000   0.000000
    15  H    0.363458  -0.011001   0.498192  -0.011001  -0.000007   0.000000
    16  H    0.363458  -0.011001  -0.011001   0.498192  -0.000007   0.000000
    17  P    0.000238  -0.000000  -0.000007  -0.000007  13.845673   0.363458
    18  H   -0.000007   0.000000   0.000000   0.000000   0.363458   0.498192
    19  H   -0.000007   0.000000   0.000000   0.000000   0.363458  -0.011001
    20  H   -0.000000  -0.000000   0.000000   0.000000   0.363458  -0.011001
              19         20
     1  Au  -0.000172   0.000969
     2  Au   0.000969   0.000969
     3  Au   0.000969  -0.000172
     4  Au  -0.011834  -0.011834
     5  P   -0.000000  -0.000007
     6  H   -0.000000   0.000000
     7  H    0.000000   0.000000
     8  H    0.000000   0.000000
     9  P   -0.000007  -0.000007
    10  H    0.000000   0.000000
    11  H    0.000000   0.000000
    12  H    0.000000   0.000000
    13  P   -0.000007  -0.000000
    14  H    0.000000  -0.000000
    15  H    0.000000   0.000000
    16  H    0.000000   0.000000
    17  P    0.363458   0.363458
    18  H   -0.011001  -0.011001
    19  H    0.498192  -0.011001
    20  H   -0.011001   0.498192
 Mulliken charges:
               1
     1  Au   0.120269
     2  Au   0.120269
     3  Au   0.120269
     4  Au   0.120269
     5  P   -0.131571
     6  H    0.170434
     7  H    0.170434
     8  H    0.170434
     9  P   -0.131571
    10  H    0.170434
    11  H    0.170434
    12  H    0.170434
    13  P   -0.131571
    14  H    0.170434
    15  H    0.170434
    16  H    0.170434
    17  P   -0.131571
    18  H    0.170434
    19  H    0.170434
    20  H    0.170434
 Sum of Mulliken charges =   2.00000
 Mulliken charges with hydrogens summed into heavy atoms:
               1
     1  Au   0.120269
     2  Au   0.120269
     3  Au   0.120269
     4  Au   0.120269
     5  P    0.379731
     9  P    0.379731
    13  P    0.379731
    17  P    0.379731
 Electronic spatial extent (au):  <R**2>=           5487.3571
 Charge=              2.0000 electrons
 Dipole moment (field-independent basis, Debye):
    X=             -0.0000    Y=              0.0000    Z=              0.0000  Tot=              0.0000
 Quadrupole moment (field-independent basis, Debye-Ang):
   XX=            -77.4898   YY=            -77.4898   ZZ=            -77.4898
   XY=              0.0000   XZ=              0.0000   YZ=              0.0000
 Traceless Quadrupole moment (field-independent basis, Debye-Ang):
   XX=              0.0000   YY=              0.0000   ZZ=             -0.0000
   XY=              0.0000   XZ=              0.0000   YZ=              0.0000
 Octapole moment (field-independent basis, Debye-Ang**2):
  XXX=             -0.0000  YYY=              0.0000  ZZZ=              0.0000  XYY=              0.0000
  XXY=              0.0000  XXZ=              0.0000  XZZ=              0.0000  YZZ=              0.0000
  YYZ=              0.0000  XYZ=            144.7068
 Hexadecapole moment (field-independent basis, Debye-Ang**3):
 XXXX=          -2014.1848 YYYY=          -2014.1848 ZZZZ=          -2014.1848 XXXY=              0.0000
 XXXZ=              0.0000 YYYX=              0.0000 YYYZ=              0.0000 ZZZX=              0.0000
 ZZZY=              0.0000 XXYY=           -429.8214 XXZZ=           -429.8214 YYZZ=           -429.8214
 XXYZ=              0.0000 YYXZ=              0.0000 ZZXY=              0.0000
 N-N= 1.361399439678D+03 E-N=-7.083482217656D+03  KE= 1.551982660760D+03
 No NMR shielding tensors so no spin-rotation constants.
 Leave Link  601 at Tue Oct 25 18:16:31 2022, MaxMem=   268435456 cpu:               0.4 elap:               0.1
 (Enter /home/zhangjx/ssd/softwares/g16/l607.exe)
 ******************************Gaussian NBO Version 3.1******************************
             N A T U R A L   A T O M I C   O R B I T A L   A N D
          N A T U R A L   B O N D   O R B I T A L   A N A L Y S I S
 ******************************Gaussian NBO Version 3.1******************************

       /RESON  / : Allow strongly delocalized NBO set
       /SKIPBO / : Skip NBO transformation step
       /ARCHIVE/ : Write the archive file to LFN 47
       /BNDIDX / : Print bond indices based on the NAO density matrix
       /FILE   / : Set to AU4L4-NOSYMM                                        

 Analyzing the SCF density

 Job title: Au4L4-nosymm                                                    

 Storage needed:    434882 in NPA ( 268433256 available)
 GSVD:  LWork=       56208 too small for GESVD, short by      118304 words or      118304 for optimal perf.


 NATURAL POPULATIONS:  Natural atomic orbital occupancies 
                                                          
   NAO  Atom  No  lang   Type(AO)    Occupancy      Energy
 ----------------------------------------------------------
     1   Au    1  S      Cor( 5S)     1.99233      -4.35919
     2   Au    1  S      Val( 6S)     0.83972      -0.20597
     3   Au    1  S      Ryd( 7S)     0.00200       1.26060
     4   Au    1  S      Ryd( 8S)     0.00025      22.38199
     5   Au    1  S      Ryd( 9S)     0.00007      53.49594
     6   Au    1  S      Ryd(10S)     0.00000     167.79377
     7   Au    1  px     Cor( 5p)     1.99833      -2.61262
     8   Au    1  px     Val( 6p)     0.07220       0.00422
     9   Au    1  px     Ryd( 7p)     0.00096       1.29383
    10   Au    1  px     Ryd( 8p)     0.00001      25.74530
    11   Au    1  py     Cor( 5p)     1.99833      -2.61262
    12   Au    1  py     Val( 6p)     0.07220       0.00422
    13   Au    1  py     Ryd( 7p)     0.00096       1.29383
    14   Au    1  py     Ryd( 8p)     0.00001      25.74530
    15   Au    1  pz     Cor( 5p)     1.99833      -2.61262
    16   Au    1  pz     Val( 6p)     0.07220       0.00422
    17   Au    1  pz     Ryd( 7p)     0.00096       1.29383
    18   Au    1  pz     Ryd( 8p)     0.00001      25.74530
    19   Au    1  dxy    Val( 5d)     1.95594      -0.58805
    20   Au    1  dxy    Ryd( 6d)     0.00589       0.91208
    21   Au    1  dxy    Ryd( 7d)     0.00015       1.63968
    22   Au    1  dxz    Val( 5d)     1.95594      -0.58805
    23   Au    1  dxz    Ryd( 6d)     0.00589       0.91208
    24   Au    1  dxz    Ryd( 7d)     0.00015       1.63968
    25   Au    1  dyz    Val( 5d)     1.95594      -0.58805
    26   Au    1  dyz    Ryd( 6d)     0.00589       0.91208
    27   Au    1  dyz    Ryd( 7d)     0.00015       1.63968
    28   Au    1  dx2y2  Val( 5d)     1.97276      -0.58638
    29   Au    1  dx2y2  Ryd( 6d)     0.00181       0.52054
    30   Au    1  dx2y2  Ryd( 7d)     0.00006       1.40121
    31   Au    1  dz2    Val( 5d)     1.97276      -0.58638
    32   Au    1  dz2    Ryd( 6d)     0.00181       0.52054
    33   Au    1  dz2    Ryd( 7d)     0.00006       1.40121
    34   Au    1  f(0)   Ryd( 5f)     0.00009       1.37297
    35   Au    1  f(C1)  Ryd( 5f)     0.00011       1.37708
    36   Au    1  f(S1)  Ryd( 5f)     0.00011       1.37708
    37   Au    1  f(C2)  Ryd( 5f)     0.00012       1.37955
    38   Au    1  f(S2)  Ryd( 5f)     0.00015       1.43970
    39   Au    1  f(C3)  Ryd( 5f)     0.00010       1.37544
    40   Au    1  f(S3)  Ryd( 5f)     0.00010       1.37544
 
    41   Au    2  S      Cor( 5S)     1.99233      -4.35919
    42   Au    2  S      Val( 6S)     0.83972      -0.20597
    43   Au    2  S      Ryd( 7S)     0.00200       1.26060
    44   Au    2  S      Ryd( 8S)     0.00025      22.38199
    45   Au    2  S      Ryd( 9S)     0.00007      53.49594
    46   Au    2  S      Ryd(10S)     0.00000     167.79377
    47   Au    2  px     Cor( 5p)     1.99833      -2.61262
    48   Au    2  px     Val( 6p)     0.07220       0.00422
    49   Au    2  px     Ryd( 7p)     0.00096       1.29383
    50   Au    2  px     Ryd( 8p)     0.00001      25.74530
    51   Au    2  py     Cor( 5p)     1.99833      -2.61262
    52   Au    2  py     Val( 6p)     0.07220       0.00422
    53   Au    2  py     Ryd( 7p)     0.00096       1.29383
    54   Au    2  py     Ryd( 8p)     0.00001      25.74530
    55   Au    2  pz     Cor( 5p)     1.99833      -2.61262
    56   Au    2  pz     Val( 6p)     0.07220       0.00422
    57   Au    2  pz     Ryd( 7p)     0.00096       1.29383
    58   Au    2  pz     Ryd( 8p)     0.00001      25.74530
    59   Au    2  dxy    Val( 5d)     1.95594      -0.58805
    60   Au    2  dxy    Ryd( 6d)     0.00589       0.91208
    61   Au    2  dxy    Ryd( 7d)     0.00015       1.63968
    62   Au    2  dxz    Val( 5d)     1.95594      -0.58805
    63   Au    2  dxz    Ryd( 6d)     0.00589       0.91208
    64   Au    2  dxz    Ryd( 7d)     0.00015       1.63968
    65   Au    2  dyz    Val( 5d)     1.95594      -0.58805
    66   Au    2  dyz    Ryd( 6d)     0.00589       0.91208
    67   Au    2  dyz    Ryd( 7d)     0.00015       1.63968
    68   Au    2  dx2y2  Val( 5d)     1.97276      -0.58638
    69   Au    2  dx2y2  Ryd( 6d)     0.00181       0.52054
    70   Au    2  dx2y2  Ryd( 7d)     0.00006       1.40121
    71   Au    2  dz2    Val( 5d)     1.97276      -0.58638
    72   Au    2  dz2    Ryd( 6d)     0.00181       0.52054
    73   Au    2  dz2    Ryd( 7d)     0.00006       1.40121
    74   Au    2  f(0)   Ryd( 5f)     0.00009       1.37297
    75   Au    2  f(C1)  Ryd( 5f)     0.00011       1.37708
    76   Au    2  f(S1)  Ryd( 5f)     0.00011       1.37708
    77   Au    2  f(C2)  Ryd( 5f)     0.00012       1.37955
    78   Au    2  f(S2)  Ryd( 5f)     0.00015       1.43970
    79   Au    2  f(C3)  Ryd( 5f)     0.00010       1.37544
    80   Au    2  f(S3)  Ryd( 5f)     0.00010       1.37544
 
    81   Au    3  S      Cor( 5S)     1.99233      -4.35919
    82   Au    3  S      Val( 6S)     0.83972      -0.20597
    83   Au    3  S      Ryd( 7S)     0.00200       1.26060
    84   Au    3  S      Ryd( 8S)     0.00025      22.38199
    85   Au    3  S      Ryd( 9S)     0.00007      53.49594
    86   Au    3  S      Ryd(10S)     0.00000     167.79377
    87   Au    3  px     Cor( 5p)     1.99833      -2.61262
    88   Au    3  px     Val( 6p)     0.07220       0.00422
    89   Au    3  px     Ryd( 7p)     0.00096       1.29383
    90   Au    3  px     Ryd( 8p)     0.00001      25.74530
    91   Au    3  py     Cor( 5p)     1.99833      -2.61262
    92   Au    3  py     Val( 6p)     0.07220       0.00422
    93   Au    3  py     Ryd( 7p)     0.00096       1.29383
    94   Au    3  py     Ryd( 8p)     0.00001      25.74530
    95   Au    3  pz     Cor( 5p)     1.99833      -2.61262
    96   Au    3  pz     Val( 6p)     0.07220       0.00422
    97   Au    3  pz     Ryd( 7p)     0.00096       1.29383
    98   Au    3  pz     Ryd( 8p)     0.00001      25.74530
    99   Au    3  dxy    Val( 5d)     1.95594      -0.58805
   100   Au    3  dxy    Ryd( 6d)     0.00589       0.91208
   101   Au    3  dxy    Ryd( 7d)     0.00015       1.63968
   102   Au    3  dxz    Val( 5d)     1.95594      -0.58805
   103   Au    3  dxz    Ryd( 6d)     0.00589       0.91208
   104   Au    3  dxz    Ryd( 7d)     0.00015       1.63968
   105   Au    3  dyz    Val( 5d)     1.95594      -0.58805
   106   Au    3  dyz    Ryd( 6d)     0.00589       0.91208
   107   Au    3  dyz    Ryd( 7d)     0.00015       1.63968
   108   Au    3  dx2y2  Val( 5d)     1.97276      -0.58638
   109   Au    3  dx2y2  Ryd( 6d)     0.00181       0.52054
   110   Au    3  dx2y2  Ryd( 7d)     0.00006       1.40121
   111   Au    3  dz2    Val( 5d)     1.97276      -0.58638
   112   Au    3  dz2    Ryd( 6d)     0.00181       0.52054
   113   Au    3  dz2    Ryd( 7d)     0.00006       1.40121
   114   Au    3  f(0)   Ryd( 5f)     0.00009       1.37297
   115   Au    3  f(C1)  Ryd( 5f)     0.00011       1.37708
   116   Au    3  f(S1)  Ryd( 5f)     0.00011       1.37708
   117   Au    3  f(C2)  Ryd( 5f)     0.00012       1.37955
   118   Au    3  f(S2)  Ryd( 5f)     0.00015       1.43970
   119   Au    3  f(C3)  Ryd( 5f)     0.00010       1.37544
   120   Au    3  f(S3)  Ryd( 5f)     0.00010       1.37544
 
   121   Au    4  S      Cor( 5S)     1.99233      -4.35919
   122   Au    4  S      Val( 6S)     0.83972      -0.20597
   123   Au    4  S      Ryd( 7S)     0.00200       1.26060
   124   Au    4  S      Ryd( 8S)     0.00025      22.38199
   125   Au    4  S      Ryd( 9S)     0.00007      53.49594
   126   Au    4  S      Ryd(10S)     0.00000     167.79377
   127   Au    4  px     Cor( 5p)     1.99833      -2.61262
   128   Au    4  px     Val( 6p)     0.07220       0.00422
   129   Au    4  px     Ryd( 7p)     0.00096       1.29383
   130   Au    4  px     Ryd( 8p)     0.00001      25.74530
   131   Au    4  py     Cor( 5p)     1.99833      -2.61262
   132   Au    4  py     Val( 6p)     0.07220       0.00422
   133   Au    4  py     Ryd( 7p)     0.00096       1.29383
   134   Au    4  py     Ryd( 8p)     0.00001      25.74530
   135   Au    4  pz     Cor( 5p)     1.99833      -2.61262
   136   Au    4  pz     Val( 6p)     0.07220       0.00422
   137   Au    4  pz     Ryd( 7p)     0.00096       1.29383
   138   Au    4  pz     Ryd( 8p)     0.00001      25.74530
   139   Au    4  dxy    Val( 5d)     1.95594      -0.58805
   140   Au    4  dxy    Ryd( 6d)     0.00589       0.91208
   141   Au    4  dxy    Ryd( 7d)     0.00015       1.63968
   142   Au    4  dxz    Val( 5d)     1.95594      -0.58805
   143   Au    4  dxz    Ryd( 6d)     0.00589       0.91208
   144   Au    4  dxz    Ryd( 7d)     0.00015       1.63968
   145   Au    4  dyz    Val( 5d)     1.95594      -0.58805
   146   Au    4  dyz    Ryd( 6d)     0.00589       0.91208
   147   Au    4  dyz    Ryd( 7d)     0.00015       1.63968
   148   Au    4  dx2y2  Val( 5d)     1.97276      -0.58638
   149   Au    4  dx2y2  Ryd( 6d)     0.00181       0.52054
   150   Au    4  dx2y2  Ryd( 7d)     0.00006       1.40121
   151   Au    4  dz2    Val( 5d)     1.97276      -0.58638
   152   Au    4  dz2    Ryd( 6d)     0.00181       0.52054
   153   Au    4  dz2    Ryd( 7d)     0.00006       1.40121
   154   Au    4  f(0)   Ryd( 5f)     0.00009       1.37297
   155   Au    4  f(C1)  Ryd( 5f)     0.00011       1.37708
   156   Au    4  f(S1)  Ryd( 5f)     0.00011       1.37708
   157   Au    4  f(C2)  Ryd( 5f)     0.00012       1.37955
   158   Au    4  f(S2)  Ryd( 5f)     0.00015       1.43970
   159   Au    4  f(C3)  Ryd( 5f)     0.00010       1.37544
   160   Au    4  f(S3)  Ryd( 5f)     0.00010       1.37544
 
   161    P    5  S      Cor( 1S)     2.00000     -76.37437
   162    P    5  S      Cor( 2S)     1.99847      -7.84388
   163    P    5  S      Val( 3S)     1.43437      -0.78401
   164    P    5  S      Ryd( 4S)     0.00225       1.00528
   165    P    5  S      Ryd( 5S)     0.00000      13.40641
   166    P    5  px     Cor( 2p)     1.99989      -5.01319
   167    P    5  px     Val( 3p)     1.13367      -0.41526
   168    P    5  px     Ryd( 4p)     0.00299       0.56873
   169    P    5  px     Ryd( 5p)     0.00010       1.45028
   170    P    5  px     Ryd( 6p)     0.00000       6.84620
   171    P    5  py     Cor( 2p)     1.99989      -5.01319
   172    P    5  py     Val( 3p)     1.13367      -0.41526
   173    P    5  py     Ryd( 4p)     0.00299       0.56873
   174    P    5  py     Ryd( 5p)     0.00010       1.45028
   175    P    5  py     Ryd( 6p)     0.00000       6.84620
   176    P    5  pz     Cor( 2p)     1.99989      -5.01319
   177    P    5  pz     Val( 3p)     1.13367      -0.41526
   178    P    5  pz     Ryd( 4p)     0.00299       0.56873
   179    P    5  pz     Ryd( 5p)     0.00010       1.45028
   180    P    5  pz     Ryd( 6p)     0.00000       6.84620
   181    P    5  dxy    Ryd( 3d)     0.01246       0.56937
   182    P    5  dxy    Ryd( 4d)     0.00025       1.38218
   183    P    5  dxz    Ryd( 3d)     0.01246       0.56937
   184    P    5  dxz    Ryd( 4d)     0.00025       1.38218
   185    P    5  dyz    Ryd( 3d)     0.01246       0.56937
   186    P    5  dyz    Ryd( 4d)     0.00025       1.38218
   187    P    5  dx2y2  Ryd( 3d)     0.00231       0.17810
   188    P    5  dx2y2  Ryd( 4d)     0.00005       1.14250
   189    P    5  dz2    Ryd( 3d)     0.00231       0.17810
   190    P    5  dz2    Ryd( 4d)     0.00005       1.14250
   191    P    5  f(0)   Ryd( 4f)     0.00021       1.47535
   192    P    5  f(C1)  Ryd( 4f)     0.00016       1.37067
   193    P    5  f(S1)  Ryd( 4f)     0.00016       1.37067
   194    P    5  f(C2)  Ryd( 4f)     0.00013       1.30787
   195    P    5  f(S2)  Ryd( 4f)     0.00055       1.74421
   196    P    5  f(C3)  Ryd( 4f)     0.00018       1.41254
   197    P    5  f(S3)  Ryd( 4f)     0.00018       1.41254
 
   198    H    6  S      Val( 1S)     0.90669      -0.36242
   199    H    6  S      Ryd( 2S)     0.00094       0.44725
   200    H    6  S      Ryd( 3S)     0.00020       1.87548
   201    H    6  px     Ryd( 2p)     0.00028       1.89724
   202    H    6  py     Ryd( 2p)     0.00018       1.76393
   203    H    6  pz     Ryd( 2p)     0.00028       1.89724
 
   204    H    7  S      Val( 1S)     0.90669      -0.36242
   205    H    7  S      Ryd( 2S)     0.00094       0.44725
   206    H    7  S      Ryd( 3S)     0.00020       1.87548
   207    H    7  px     Ryd( 2p)     0.00028       1.89724
   208    H    7  py     Ryd( 2p)     0.00028       1.89724
   209    H    7  pz     Ryd( 2p)     0.00018       1.76393
 
   210    H    8  S      Val( 1S)     0.90669      -0.36242
   211    H    8  S      Ryd( 2S)     0.00094       0.44725
   212    H    8  S      Ryd( 3S)     0.00020       1.87548
   213    H    8  px     Ryd( 2p)     0.00018       1.76393
   214    H    8  py     Ryd( 2p)     0.00028       1.89724
   215    H    8  pz     Ryd( 2p)     0.00028       1.89724
 
   216    P    9  S      Cor( 1S)     2.00000     -76.37437
   217    P    9  S      Cor( 2S)     1.99847      -7.84388
   218    P    9  S      Val( 3S)     1.43437      -0.78401
   219    P    9  S      Ryd( 4S)     0.00225       1.00528
   220    P    9  S      Ryd( 5S)     0.00000      13.40641
   221    P    9  px     Cor( 2p)     1.99989      -5.01319
   222    P    9  px     Val( 3p)     1.13367      -0.41526
   223    P    9  px     Ryd( 4p)     0.00299       0.56873
   224    P    9  px     Ryd( 5p)     0.00010       1.45028
   225    P    9  px     Ryd( 6p)     0.00000       6.84620
   226    P    9  py     Cor( 2p)     1.99989      -5.01319
   227    P    9  py     Val( 3p)     1.13367      -0.41526
   228    P    9  py     Ryd( 4p)     0.00299       0.56873
   229    P    9  py     Ryd( 5p)     0.00010       1.45028
   230    P    9  py     Ryd( 6p)     0.00000       6.84620
   231    P    9  pz     Cor( 2p)     1.99989      -5.01319
   232    P    9  pz     Val( 3p)     1.13367      -0.41526
   233    P    9  pz     Ryd( 4p)     0.00299       0.56873
   234    P    9  pz     Ryd( 5p)     0.00010       1.45028
   235    P    9  pz     Ryd( 6p)     0.00000       6.84620
   236    P    9  dxy    Ryd( 3d)     0.01246       0.56937
   237    P    9  dxy    Ryd( 4d)     0.00025       1.38218
   238    P    9  dxz    Ryd( 3d)     0.01246       0.56937
   239    P    9  dxz    Ryd( 4d)     0.00025       1.38218
   240    P    9  dyz    Ryd( 3d)     0.01246       0.56937
   241    P    9  dyz    Ryd( 4d)     0.00025       1.38218
   242    P    9  dx2y2  Ryd( 3d)     0.00231       0.17810
   243    P    9  dx2y2  Ryd( 4d)     0.00005       1.14250
   244    P    9  dz2    Ryd( 3d)     0.00231       0.17810
   245    P    9  dz2    Ryd( 4d)     0.00005       1.14250
   246    P    9  f(0)   Ryd( 4f)     0.00021       1.47535
   247    P    9  f(C1)  Ryd( 4f)     0.00016       1.37067
   248    P    9  f(S1)  Ryd( 4f)     0.00016       1.37067
   249    P    9  f(C2)  Ryd( 4f)     0.00013       1.30787
   250    P    9  f(S2)  Ryd( 4f)     0.00055       1.74421
   251    P    9  f(C3)  Ryd( 4f)     0.00018       1.41254
   252    P    9  f(S3)  Ryd( 4f)     0.00018       1.41254
 
   253    H   10  S      Val( 1S)     0.90669      -0.36242
   254    H   10  S      Ryd( 2S)     0.00094       0.44725
   255    H   10  S      Ryd( 3S)     0.00020       1.87548
   256    H   10  px     Ryd( 2p)     0.00028       1.89724
   257    H   10  py     Ryd( 2p)     0.00028       1.89724
   258    H   10  pz     Ryd( 2p)     0.00018       1.76393
 
   259    H   11  S      Val( 1S)     0.90669      -0.36242
   260    H   11  S      Ryd( 2S)     0.00094       0.44725
   261    H   11  S      Ryd( 3S)     0.00020       1.87548
   262    H   11  px     Ryd( 2p)     0.00018       1.76393
   263    H   11  py     Ryd( 2p)     0.00028       1.89724
   264    H   11  pz     Ryd( 2p)     0.00028       1.89724
 
   265    H   12  S      Val( 1S)     0.90669      -0.36242
   266    H   12  S      Ryd( 2S)     0.00094       0.44725
   267    H   12  S      Ryd( 3S)     0.00020       1.87548
   268    H   12  px     Ryd( 2p)     0.00028       1.89724
   269    H   12  py     Ryd( 2p)     0.00018       1.76393
   270    H   12  pz     Ryd( 2p)     0.00028       1.89724
 
   271    P   13  S      Cor( 1S)     2.00000     -76.37437
   272    P   13  S      Cor( 2S)     1.99847      -7.84388
   273    P   13  S      Val( 3S)     1.43437      -0.78401
   274    P   13  S      Ryd( 4S)     0.00225       1.00528
   275    P   13  S      Ryd( 5S)     0.00000      13.40641
   276    P   13  px     Cor( 2p)     1.99989      -5.01319
   277    P   13  px     Val( 3p)     1.13367      -0.41526
   278    P   13  px     Ryd( 4p)     0.00299       0.56873
   279    P   13  px     Ryd( 5p)     0.00010       1.45028
   280    P   13  px     Ryd( 6p)     0.00000       6.84620
   281    P   13  py     Cor( 2p)     1.99989      -5.01319
   282    P   13  py     Val( 3p)     1.13367      -0.41526
   283    P   13  py     Ryd( 4p)     0.00299       0.56873
   284    P   13  py     Ryd( 5p)     0.00010       1.45028
   285    P   13  py     Ryd( 6p)     0.00000       6.84620
   286    P   13  pz     Cor( 2p)     1.99989      -5.01319
   287    P   13  pz     Val( 3p)     1.13367      -0.41526
   288    P   13  pz     Ryd( 4p)     0.00299       0.56873
   289    P   13  pz     Ryd( 5p)     0.00010       1.45028
   290    P   13  pz     Ryd( 6p)     0.00000       6.84620
   291    P   13  dxy    Ryd( 3d)     0.01246       0.56937
   292    P   13  dxy    Ryd( 4d)     0.00025       1.38218
   293    P   13  dxz    Ryd( 3d)     0.01246       0.56937
   294    P   13  dxz    Ryd( 4d)     0.00025       1.38218
   295    P   13  dyz    Ryd( 3d)     0.01246       0.56937
   296    P   13  dyz    Ryd( 4d)     0.00025       1.38218
   297    P   13  dx2y2  Ryd( 3d)     0.00231       0.17810
   298    P   13  dx2y2  Ryd( 4d)     0.00005       1.14250
   299    P   13  dz2    Ryd( 3d)     0.00231       0.17810
   300    P   13  dz2    Ryd( 4d)     0.00005       1.14250
   301    P   13  f(0)   Ryd( 4f)     0.00021       1.47535
   302    P   13  f(C1)  Ryd( 4f)     0.00016       1.37067
   303    P   13  f(S1)  Ryd( 4f)     0.00016       1.37067
   304    P   13  f(C2)  Ryd( 4f)     0.00013       1.30787
   305    P   13  f(S2)  Ryd( 4f)     0.00055       1.74421
   306    P   13  f(C3)  Ryd( 4f)     0.00018       1.41254
   307    P   13  f(S3)  Ryd( 4f)     0.00018       1.41254
 
   308    H   14  S      Val( 1S)     0.90669      -0.36242
   309    H   14  S      Ryd( 2S)     0.00094       0.44725
   310    H   14  S      Ryd( 3S)     0.00020       1.87548
   311    H   14  px     Ryd( 2p)     0.00028       1.89724
   312    H   14  py     Ryd( 2p)     0.00028       1.89724
   313    H   14  pz     Ryd( 2p)     0.00018       1.76393
 
   314    H   15  S      Val( 1S)     0.90669      -0.36242
   315    H   15  S      Ryd( 2S)     0.00094       0.44725
   316    H   15  S      Ryd( 3S)     0.00020       1.87548
   317    H   15  px     Ryd( 2p)     0.00018       1.76393
   318    H   15  py     Ryd( 2p)     0.00028       1.89724
   319    H   15  pz     Ryd( 2p)     0.00028       1.89724
 
   320    H   16  S      Val( 1S)     0.90669      -0.36242
   321    H   16  S      Ryd( 2S)     0.00094       0.44725
   322    H   16  S      Ryd( 3S)     0.00020       1.87548
   323    H   16  px     Ryd( 2p)     0.00028       1.89724
   324    H   16  py     Ryd( 2p)     0.00018       1.76393
   325    H   16  pz     Ryd( 2p)     0.00028       1.89724
 
   326    P   17  S      Cor( 1S)     2.00000     -76.37437
   327    P   17  S      Cor( 2S)     1.99847      -7.84388
   328    P   17  S      Val( 3S)     1.43437      -0.78401
   329    P   17  S      Ryd( 4S)     0.00225       1.00528
   330    P   17  S      Ryd( 5S)     0.00000      13.40641
   331    P   17  px     Cor( 2p)     1.99989      -5.01319
   332    P   17  px     Val( 3p)     1.13367      -0.41526
   333    P   17  px     Ryd( 4p)     0.00299       0.56873
   334    P   17  px     Ryd( 5p)     0.00010       1.45028
   335    P   17  px     Ryd( 6p)     0.00000       6.84620
   336    P   17  py     Cor( 2p)     1.99989      -5.01319
   337    P   17  py     Val( 3p)     1.13367      -0.41526
   338    P   17  py     Ryd( 4p)     0.00299       0.56873
   339    P   17  py     Ryd( 5p)     0.00010       1.45028
   340    P   17  py     Ryd( 6p)     0.00000       6.84620
   341    P   17  pz     Cor( 2p)     1.99989      -5.01319
   342    P   17  pz     Val( 3p)     1.13367      -0.41526
   343    P   17  pz     Ryd( 4p)     0.00299       0.56873
   344    P   17  pz     Ryd( 5p)     0.00010       1.45028
   345    P   17  pz     Ryd( 6p)     0.00000       6.84620
   346    P   17  dxy    Ryd( 3d)     0.01246       0.56937
   347    P   17  dxy    Ryd( 4d)     0.00025       1.38218
   348    P   17  dxz    Ryd( 3d)     0.01246       0.56937
   349    P   17  dxz    Ryd( 4d)     0.00025       1.38218
   350    P   17  dyz    Ryd( 3d)     0.01246       0.56937
   351    P   17  dyz    Ryd( 4d)     0.00025       1.38218
   352    P   17  dx2y2  Ryd( 3d)     0.00231       0.17810
   353    P   17  dx2y2  Ryd( 4d)     0.00005       1.14250
   354    P   17  dz2    Ryd( 3d)     0.00231       0.17810
   355    P   17  dz2    Ryd( 4d)     0.00005       1.14250
   356    P   17  f(0)   Ryd( 4f)     0.00021       1.47535
   357    P   17  f(C1)  Ryd( 4f)     0.00016       1.37067
   358    P   17  f(S1)  Ryd( 4f)     0.00016       1.37067
   359    P   17  f(C2)  Ryd( 4f)     0.00013       1.30787
   360    P   17  f(S2)  Ryd( 4f)     0.00055       1.74421
   361    P   17  f(C3)  Ryd( 4f)     0.00018       1.41254
   362    P   17  f(S3)  Ryd( 4f)     0.00018       1.41254
 
   363    H   18  S      Val( 1S)     0.90669      -0.36242
   364    H   18  S      Ryd( 2S)     0.00094       0.44725
   365    H   18  S      Ryd( 3S)     0.00020       1.87548
   366    H   18  px     Ryd( 2p)     0.00018       1.76393
   367    H   18  py     Ryd( 2p)     0.00028       1.89724
   368    H   18  pz     Ryd( 2p)     0.00028       1.89724
 
   369    H   19  S      Val( 1S)     0.90669      -0.36242
   370    H   19  S      Ryd( 2S)     0.00094       0.44725
   371    H   19  S      Ryd( 3S)     0.00020       1.87548
   372    H   19  px     Ryd( 2p)     0.00028       1.89724
   373    H   19  py     Ryd( 2p)     0.00018       1.76393
   374    H   19  pz     Ryd( 2p)     0.00028       1.89724
 
   375    H   20  S      Val( 1S)     0.90669      -0.36242
   376    H   20  S      Ryd( 2S)     0.00094       0.44725
   377    H   20  S      Ryd( 3S)     0.00020       1.87548
   378    H   20  px     Ryd( 2p)     0.00028       1.89724
   379    H   20  py     Ryd( 2p)     0.00028       1.89724
   380    H   20  pz     Ryd( 2p)     0.00018       1.76393

 [240 electrons found in the effective core potential]

 WARNING:  4 low occupancy (<1.9990e) core orbitals found on Au    1
           4 low occupancy (<1.9990e) core orbitals found on Au    2
           4 low occupancy (<1.9990e) core orbitals found on Au    3
           4 low occupancy (<1.9990e) core orbitals found on Au    4
           1 low occupancy (<1.9990e) core orbital  found on  P    5
           1 low occupancy (<1.9990e) core orbital  found on  P    9
           1 low occupancy (<1.9990e) core orbital  found on  P   13
           1 low occupancy (<1.9990e) core orbital  found on  P   17


 Summary of Natural Population Analysis:                  
                                                          
                                       Natural Population 
                Natural  -----------------------------------------------
    Atom  No    Charge         Core      Valence    Rydberg      Total
 -----------------------------------------------------------------------
     Au    1    0.11516     67.98731    10.86966    0.02787    78.88484
     Au    2    0.11516     67.98731    10.86966    0.02787    78.88484
     Au    3    0.11516     67.98731    10.86966    0.02787    78.88484
     Au    4    0.11516     67.98731    10.86966    0.02787    78.88484
      P    5    0.11052      9.99814     4.83539    0.05595    14.88948
      H    6    0.09144      0.00000     0.90669    0.00187     0.90856
      H    7    0.09144      0.00000     0.90669    0.00187     0.90856
      H    8    0.09144      0.00000     0.90669    0.00187     0.90856
      P    9    0.11052      9.99814     4.83539    0.05595    14.88948
      H   10    0.09144      0.00000     0.90669    0.00187     0.90856
      H   11    0.09144      0.00000     0.90669    0.00187     0.90856
      H   12    0.09144      0.00000     0.90669    0.00187     0.90856
      P   13    0.11052      9.99814     4.83539    0.05595    14.88948
      H   14    0.09144      0.00000     0.90669    0.00187     0.90856
      H   15    0.09144      0.00000     0.90669    0.00187     0.90856
      H   16    0.09144      0.00000     0.90669    0.00187     0.90856
      P   17    0.11052      9.99814     4.83539    0.05595    14.88948
      H   18    0.09144      0.00000     0.90669    0.00187     0.90856
      H   19    0.09144      0.00000     0.90669    0.00187     0.90856
      H   20    0.09144      0.00000     0.90669    0.00187     0.90856
 =======================================================================
   * Total *    2.00000    311.94178    73.70044    0.35778   386.00000

                                 Natural Population      
 --------------------------------------------------------
   Effective Core           240.00000
   Core                      71.94178 ( 99.9191% of  72)
   Valence                   73.70044 ( 99.5952% of  74)
   Natural Minimal Basis    385.64222 ( 99.9073% of 386)
   Natural Rydberg Basis      0.35778 (  0.0927% of 386)
 --------------------------------------------------------

    Atom  No          Natural Electron Configuration
 ----------------------------------------------------------------------------
     Au    1      [core]6S( 0.84)5d( 9.81)6p( 0.22)6d( 0.02)
     Au    2      [core]6S( 0.84)5d( 9.81)6p( 0.22)6d( 0.02)
     Au    3      [core]6S( 0.84)5d( 9.81)6p( 0.22)6d( 0.02)
     Au    4      [core]6S( 0.84)5d( 9.81)6p( 0.22)6d( 0.02)
      P    5      [core]3S( 1.43)3p( 3.40)3d( 0.04)4p( 0.01)
      H    6            1S( 0.91)
      H    7            1S( 0.91)
      H    8            1S( 0.91)
      P    9      [core]3S( 1.43)3p( 3.40)3d( 0.04)4p( 0.01)
      H   10            1S( 0.91)
      H   11            1S( 0.91)
      H   12            1S( 0.91)
      P   13      [core]3S( 1.43)3p( 3.40)3d( 0.04)4p( 0.01)
      H   14            1S( 0.91)
      H   15            1S( 0.91)
      H   16            1S( 0.91)
      P   17      [core]3S( 1.43)3p( 3.40)3d( 0.04)4p( 0.01)
      H   18            1S( 0.91)
      H   19            1S( 0.91)
      H   20            1S( 0.91)


 Wiberg bond index matrix in the NAO basis:                                    

     Atom    1       2       3       4       5       6       7       8       9
     ---- ------  ------  ------  ------  ------  ------  ------  ------  ------
   1. Au  0.0000  0.2752  0.2752  0.2752  0.5953  0.0144  0.0144  0.0144  0.0438
   2. Au  0.2752  0.0000  0.2752  0.2752  0.0438  0.0015  0.0023  0.0015  0.5953
   3. Au  0.2752  0.2752  0.0000  0.2752  0.0438  0.0015  0.0015  0.0023  0.0438
   4. Au  0.2752  0.2752  0.2752  0.0000  0.0438  0.0023  0.0015  0.0015  0.0438
   5.  P  0.5953  0.0438  0.0438  0.0438  0.0000  0.9619  0.9619  0.9619  0.0089
   6.  H  0.0144  0.0015  0.0015  0.0023  0.9619  0.0000  0.0055  0.0055  0.0006
   7.  H  0.0144  0.0023  0.0015  0.0015  0.9619  0.0055  0.0000  0.0055  0.0002
   8.  H  0.0144  0.0015  0.0023  0.0015  0.9619  0.0055  0.0055  0.0000  0.0006
   9.  P  0.0438  0.5953  0.0438  0.0438  0.0089  0.0006  0.0002  0.0006  0.0000
  10.  H  0.0023  0.0144  0.0015  0.0015  0.0002  0.0000  0.0001  0.0000  0.9619
  11.  H  0.0015  0.0144  0.0015  0.0023  0.0006  0.0000  0.0000  0.0000  0.9619
  12.  H  0.0015  0.0144  0.0023  0.0015  0.0006  0.0000  0.0000  0.0000  0.9619
  13.  P  0.0438  0.0438  0.5953  0.0438  0.0089  0.0006  0.0006  0.0002  0.0089
  14.  H  0.0015  0.0015  0.0144  0.0023  0.0006  0.0000  0.0000  0.0000  0.0006
  15.  H  0.0023  0.0015  0.0144  0.0015  0.0002  0.0000  0.0000  0.0001  0.0006
  16.  H  0.0015  0.0023  0.0144  0.0015  0.0006  0.0000  0.0000  0.0000  0.0002
  17.  P  0.0438  0.0438  0.0438  0.5953  0.0089  0.0002  0.0006  0.0006  0.0089
  18.  H  0.0015  0.0023  0.0015  0.0144  0.0006  0.0000  0.0000  0.0000  0.0002
  19.  H  0.0023  0.0015  0.0015  0.0144  0.0002  0.0001  0.0000  0.0000  0.0006
  20.  H  0.0015  0.0015  0.0023  0.0144  0.0006  0.0000  0.0000  0.0000  0.0006

     Atom   10      11      12      13      14      15      16      17      18
     ---- ------  ------  ------  ------  ------  ------  ------  ------  ------
   1. Au  0.0023  0.0015  0.0015  0.0438  0.0015  0.0023  0.0015  0.0438  0.0015
   2. Au  0.0144  0.0144  0.0144  0.0438  0.0015  0.0015  0.0023  0.0438  0.0023
   3. Au  0.0015  0.0015  0.0023  0.5953  0.0144  0.0144  0.0144  0.0438  0.0015
   4. Au  0.0015  0.0023  0.0015  0.0438  0.0023  0.0015  0.0015  0.5953  0.0144
   5.  P  0.0002  0.0006  0.0006  0.0089  0.0006  0.0002  0.0006  0.0089  0.0006
   6.  H  0.0000  0.0000  0.0000  0.0006  0.0000  0.0000  0.0000  0.0002  0.0000
   7.  H  0.0001  0.0000  0.0000  0.0006  0.0000  0.0000  0.0000  0.0006  0.0000
   8.  H  0.0000  0.0000  0.0000  0.0002  0.0000  0.0001  0.0000  0.0006  0.0000
   9.  P  0.9619  0.9619  0.9619  0.0089  0.0006  0.0006  0.0002  0.0089  0.0002
  10.  H  0.0000  0.0055  0.0055  0.0006  0.0000  0.0000  0.0000  0.0006  0.0000
  11.  H  0.0055  0.0000  0.0055  0.0006  0.0000  0.0000  0.0000  0.0002  0.0001
  12.  H  0.0055  0.0055  0.0000  0.0002  0.0000  0.0000  0.0001  0.0006  0.0000
  13.  P  0.0006  0.0006  0.0002  0.0000  0.9619  0.9619  0.9619  0.0089  0.0006
  14.  H  0.0000  0.0000  0.0000  0.9619  0.0000  0.0055  0.0055  0.0002  0.0000
  15.  H  0.0000  0.0000  0.0000  0.9619  0.0055  0.0000  0.0055  0.0006  0.0000
  16.  H  0.0000  0.0000  0.0001  0.9619  0.0055  0.0055  0.0000  0.0006  0.0000
  17.  P  0.0006  0.0002  0.0006  0.0089  0.0002  0.0006  0.0006  0.0000  0.9619
  18.  H  0.0000  0.0001  0.0000  0.0006  0.0000  0.0000  0.0000  0.9619  0.0000
  19.  H  0.0000  0.0000  0.0000  0.0006  0.0000  0.0000  0.0000  0.9619  0.0055
  20.  H  0.0000  0.0000  0.0000  0.0002  0.0001  0.0000  0.0000  0.9619  0.0055

     Atom   19      20
     ---- ------  ------
   1. Au  0.0023  0.0015
   2. Au  0.0015  0.0015
   3. Au  0.0015  0.0023
   4. Au  0.0144  0.0144
   5.  P  0.0002  0.0006
   6.  H  0.0001  0.0000
   7.  H  0.0000  0.0000
   8.  H  0.0000  0.0000
   9.  P  0.0006  0.0006
  10.  H  0.0000  0.0000
  11.  H  0.0000  0.0000
  12.  H  0.0000  0.0000
  13.  P  0.0006  0.0002
  14.  H  0.0000  0.0001
  15.  H  0.0000  0.0000
  16.  H  0.0000  0.0000
  17.  P  0.9619  0.9619
  18.  H  0.0055  0.0055
  19.  H  0.0000  0.0055
  20.  H  0.0055  0.0000


 Wiberg bond index, Totals by atom:                                            

     Atom    1
     ---- ------
   1. Au  1.6112
   2. Au  1.6112
   3. Au  1.6112
   4. Au  1.6112
   5.  P  3.6433
   6.  H  0.9941
   7.  H  0.9941
   8.  H  0.9941
   9.  P  3.6433
  10.  H  0.9941
  11.  H  0.9941
  12.  H  0.9941
  13.  P  3.6433
  14.  H  0.9941
  15.  H  0.9941
  16.  H  0.9941
  17.  P  3.6433
  18.  H  0.9941
  19.  H  0.9941
  20.  H  0.9941


 Atom-atom overlap-weighted NAO bond order:                                    

     Atom    1       2       3       4       5       6       7       8       9
     ---- ------  ------  ------  ------  ------  ------  ------  ------  ------
   1. Au  0.0000  0.4948  0.4948  0.4948  0.5517 -0.0036 -0.0036 -0.0036 -0.0000
   2. Au  0.4948  0.0000  0.4948  0.4948 -0.0000  0.0002 -0.0009  0.0002  0.5517
   3. Au  0.4948  0.4948  0.0000  0.4948 -0.0000  0.0002  0.0002 -0.0009 -0.0000
   4. Au  0.4948  0.4948  0.4948  0.0000 -0.0000 -0.0009  0.0002  0.0002 -0.0000
   5.  P  0.5517 -0.0000 -0.0000 -0.0000  0.0000  0.7688  0.7688  0.7688  0.0000
   6.  H -0.0036  0.0002  0.0002 -0.0009  0.7688  0.0000 -0.0041 -0.0041  0.0000
   7.  H -0.0036 -0.0009  0.0002  0.0002  0.7688 -0.0041  0.0000 -0.0041  0.0000
   8.  H -0.0036  0.0002 -0.0009  0.0002  0.7688 -0.0041 -0.0041  0.0000  0.0000
   9.  P -0.0000  0.5517 -0.0000 -0.0000  0.0000  0.0000  0.0000  0.0000  0.0000
  10.  H -0.0009 -0.0036  0.0002  0.0002  0.0000 -0.0000  0.0000 -0.0000  0.7688
  11.  H  0.0002 -0.0036  0.0002 -0.0009  0.0000  0.0000 -0.0000 -0.0000  0.7688
  12.  H  0.0002 -0.0036 -0.0009  0.0002  0.0000 -0.0000 -0.0000  0.0000  0.7688
  13.  P -0.0000 -0.0000  0.5517 -0.0000  0.0000  0.0000  0.0000  0.0000  0.0000
  14.  H  0.0002  0.0002 -0.0036 -0.0009  0.0000  0.0000 -0.0000 -0.0000  0.0000
  15.  H -0.0009  0.0002 -0.0036  0.0002  0.0000 -0.0000 -0.0000  0.0000  0.0000
  16.  H  0.0002 -0.0009 -0.0036  0.0002  0.0000 -0.0000  0.0000 -0.0000  0.0000
  17.  P -0.0000 -0.0000 -0.0000  0.5517  0.0000  0.0000  0.0000  0.0000  0.0000
  18.  H  0.0002 -0.0009  0.0002 -0.0036  0.0000 -0.0000  0.0000 -0.0000  0.0000
  19.  H -0.0009  0.0002  0.0002 -0.0036  0.0000  0.0000 -0.0000 -0.0000  0.0000
  20.  H  0.0002  0.0002 -0.0009 -0.0036  0.0000 -0.0000 -0.0000  0.0000  0.0000

     Atom   10      11      12      13      14      15      16      17      18
     ---- ------  ------  ------  ------  ------  ------  ------  ------  ------
   1. Au -0.0009  0.0002  0.0002 -0.0000  0.0002 -0.0009  0.0002 -0.0000  0.0002
   2. Au -0.0036 -0.0036 -0.0036 -0.0000  0.0002  0.0002 -0.0009 -0.0000 -0.0009
   3. Au  0.0002  0.0002 -0.0009  0.5517 -0.0036 -0.0036 -0.0036 -0.0000  0.0002
   4. Au  0.0002 -0.0009  0.0002 -0.0000 -0.0009  0.0002  0.0002  0.5517 -0.0036
   5.  P  0.0000  0.0000  0.0000  0.0000  0.0000  0.0000  0.0000  0.0000  0.0000
   6.  H -0.0000  0.0000 -0.0000  0.0000  0.0000 -0.0000 -0.0000  0.0000 -0.0000
   7.  H  0.0000 -0.0000 -0.0000  0.0000 -0.0000 -0.0000  0.0000  0.0000  0.0000
   8.  H -0.0000 -0.0000  0.0000  0.0000 -0.0000  0.0000 -0.0000  0.0000 -0.0000
   9.  P  0.7688  0.7688  0.7688  0.0000  0.0000  0.0000  0.0000  0.0000  0.0000
  10.  H  0.0000 -0.0041 -0.0041  0.0000 -0.0000  0.0000 -0.0000  0.0000 -0.0000
  11.  H -0.0041  0.0000 -0.0041  0.0000  0.0000 -0.0000 -0.0000  0.0000  0.0000
  12.  H -0.0041 -0.0041  0.0000  0.0000 -0.0000 -0.0000  0.0000  0.0000 -0.0000
  13.  P  0.0000  0.0000  0.0000  0.0000  0.7688  0.7688  0.7688  0.0000  0.0000
  14.  H -0.0000  0.0000 -0.0000  0.7688  0.0000 -0.0041 -0.0041  0.0000 -0.0000
  15.  H  0.0000 -0.0000 -0.0000  0.7688 -0.0041  0.0000 -0.0041  0.0000 -0.0000
  16.  H -0.0000 -0.0000  0.0000  0.7688 -0.0041 -0.0041  0.0000  0.0000  0.0000
  17.  P  0.0000  0.0000  0.0000  0.0000  0.0000  0.0000  0.0000  0.0000  0.7688
  18.  H -0.0000  0.0000 -0.0000  0.0000 -0.0000 -0.0000  0.0000  0.7688  0.0000
  19.  H  0.0000 -0.0000 -0.0000  0.0000 -0.0000  0.0000 -0.0000  0.7688 -0.0041
  20.  H -0.0000 -0.0000  0.0000  0.0000  0.0000 -0.0000 -0.0000  0.7688 -0.0041

     Atom   19      20
     ---- ------  ------
   1. Au -0.0009  0.0002
   2. Au  0.0002  0.0002
   3. Au  0.0002 -0.0009
   4. Au -0.0036 -0.0036
   5.  P  0.0000  0.0000
   6.  H  0.0000 -0.0000
   7.  H -0.0000 -0.0000
   8.  H -0.0000  0.0000
   9.  P  0.0000  0.0000
  10.  H  0.0000 -0.0000
  11.  H -0.0000 -0.0000
  12.  H -0.0000  0.0000
  13.  P  0.0000  0.0000
  14.  H -0.0000  0.0000
  15.  H  0.0000 -0.0000
  16.  H -0.0000 -0.0000
  17.  P  0.7688  0.7688
  18.  H -0.0041 -0.0041
  19.  H  0.0000 -0.0041
  20.  H -0.0041  0.0000


 Atom-atom overlap-weighted NAO bond order, Totals by atom:                    

     Atom    1
     ---- ------
   1. Au  2.0236
   2. Au  2.0236
   3. Au  2.0236
   4. Au  2.0236
   5.  P  2.8582
   6.  H  0.7565
   7.  H  0.7565
   8.  H  0.7565
   9.  P  2.8582
  10.  H  0.7565
  11.  H  0.7565
  12.  H  0.7565
  13.  P  2.8582
  14.  H  0.7565
  15.  H  0.7565
  16.  H  0.7565
  17.  P  2.8582
  18.  H  0.7565
  19.  H  0.7565
  20.  H  0.7565


 MO bond order:                                                                

     Atom    1       2       3       4       5       6       7       8       9
     ---- ------  ------  ------  ------  ------  ------  ------  ------  ------
   1. Au  0.0000  0.1158  0.2243  0.3517 -0.7538 -0.1949  0.0084 -0.0467 -0.1242
   2. Au  0.1158  0.0000  0.1856  0.0956 -0.0592 -0.0098 -0.0382  0.0125  0.2989
   3. Au  0.2243  0.1856  0.0000  0.0117 -0.0293 -0.0117  0.0187 -0.0305 -0.0898
   4. Au  0.3517  0.0956  0.0117  0.0000  0.0641 -0.0105  0.0135  0.0055  0.0150
   5.  P -0.7538 -0.0592 -0.0293  0.0641  0.0000  1.0230  0.9972  1.0008 -0.0428
   6.  H -0.1949 -0.0098 -0.0117 -0.0105  1.0230  0.0000 -0.0508 -0.0508  0.0018
   7.  H  0.0084 -0.0382  0.0187  0.0135  0.9972 -0.0508  0.0000 -0.0508 -0.0003
   8.  H -0.0467  0.0125 -0.0305  0.0055  1.0008 -0.0508 -0.0508  0.0000  0.0006
   9.  P -0.1242  0.2989 -0.0898  0.0150 -0.0428  0.0018 -0.0003  0.0006  0.0000
  10.  H -0.0074 -0.0651 -0.0017  0.0066 -0.0187 -0.0033 -0.0027 -0.0033 -0.9765
  11.  H  0.0395  0.0689  0.0253  0.0104  0.0055  0.0025 -0.0025  0.0024  0.7926
  12.  H  0.0123 -0.0931  0.0303  0.0082  0.0057  0.0024 -0.0025  0.0025  0.8485
  13.  P -0.1497 -0.1030  0.1336  0.0617 -0.0463  0.0018  0.0002 -0.0023  0.0942
  14.  H  0.0463  0.0348  0.1286  0.0030  0.0054  0.0025  0.0024 -0.0025 -0.0035
  15.  H  0.0010 -0.0109 -0.1262  0.0006 -0.0195 -0.0033 -0.0033 -0.0027 -0.0180
  16.  H  0.0091  0.0295 -0.0913  0.0112  0.0057  0.0024  0.0025 -0.0025  0.0221
  17.  P -0.1570 -0.0397  0.0242 -0.4098 -0.0602 -0.0082  0.0002  0.0008  0.0734
  18.  H  0.0274  0.0081  0.0367  0.0738  0.0051 -0.0025  0.0025  0.0024  0.0249
  19.  H  0.0252 -0.0275 -0.0243 -0.2980 -0.0211 -0.0027 -0.0033 -0.0033 -0.0156
  20.  H  0.0374  0.0430  0.0006  0.1344  0.0050 -0.0025  0.0024  0.0025 -0.0029

     Atom   10      11      12      13      14      15      16      17      18
     ---- ------  ------  ------  ------  ------  ------  ------  ------  ------
   1. Au -0.0074  0.0395  0.0123 -0.1497  0.0463  0.0010  0.0091 -0.1570  0.0274
   2. Au -0.0651  0.0689 -0.0931 -0.1030  0.0348 -0.0109  0.0295 -0.0397  0.0081
   3. Au -0.0017  0.0253  0.0303  0.1336  0.1286 -0.1262 -0.0913  0.0242  0.0367
   4. Au  0.0066  0.0104  0.0082  0.0617  0.0030  0.0006  0.0112 -0.4098  0.0738
   5.  P -0.0187  0.0055  0.0057 -0.0463  0.0054 -0.0195  0.0057 -0.0602  0.0051
   6.  H -0.0033  0.0025  0.0024  0.0018  0.0025 -0.0033  0.0024 -0.0082 -0.0025
   7.  H -0.0027 -0.0025 -0.0025  0.0002  0.0024 -0.0033  0.0025  0.0002  0.0025
   8.  H -0.0033  0.0024  0.0025 -0.0023 -0.0025 -0.0027 -0.0025  0.0008  0.0024
   9.  P -0.9765  0.7926  0.8485  0.0942 -0.0035 -0.0180  0.0221  0.0734  0.0249
  10.  H  0.0000 -0.0709 -0.0709 -0.0188  0.0028  0.0026 -0.0031 -0.0188 -0.0031
  11.  H -0.0709  0.0000 -0.0529 -0.0032  0.0026  0.0028 -0.0032  0.0257 -0.0020
  12.  H -0.0709 -0.0529  0.0000  0.0223 -0.0032 -0.0031 -0.0020 -0.0010 -0.0032
  13.  P -0.0188 -0.0032  0.0223  0.0000  0.7788 -0.9680  0.8601  0.0632 -0.0022
  14.  H  0.0028  0.0026 -0.0032  0.7788  0.0000 -0.0709 -0.0529  0.0269 -0.0032
  15.  H  0.0026  0.0028 -0.0031 -0.9680 -0.0709  0.0000 -0.0709 -0.0178  0.0028
  16.  H -0.0031 -0.0032 -0.0020  0.8601 -0.0529 -0.0709  0.0000 -0.0008  0.0026
  17.  P -0.0188  0.0257 -0.0010  0.0632  0.0269 -0.0178 -0.0008  0.0000  0.8266
  18.  H -0.0031 -0.0020 -0.0032 -0.0022 -0.0032  0.0028  0.0026  0.8266  0.0000
  19.  H  0.0026 -0.0031  0.0028 -0.0154 -0.0031  0.0026  0.0028 -0.9474 -0.0709
  20.  H  0.0028 -0.0032  0.0026  0.0259 -0.0020 -0.0031 -0.0032  0.8040 -0.0529

     Atom   19      20
     ---- ------  ------
   1. Au  0.0252  0.0374
   2. Au -0.0275  0.0430
   3. Au -0.0243  0.0006
   4. Au -0.2980  0.1344
   5.  P -0.0211  0.0050
   6.  H -0.0027 -0.0025
   7.  H -0.0033  0.0024
   8.  H -0.0033  0.0025
   9.  P -0.0156 -0.0029
  10.  H  0.0026  0.0028
  11.  H -0.0031 -0.0032
  12.  H  0.0028  0.0026
  13.  P -0.0154  0.0259
  14.  H -0.0031 -0.0020
  15.  H  0.0026 -0.0031
  16.  H  0.0028 -0.0032
  17.  P -0.9474  0.8040
  18.  H -0.0709 -0.0529
  19.  H  0.0000 -0.0709
  20.  H -0.0709  0.0000


 MO atomic valencies:                                                          

     Atom    1
     ---- ------
   1. Au -0.5355
   2. Au  0.4463
   3. Au  0.4148
   4. Au  0.1487
   5.  P  2.0667
   6.  H  0.6852
   7.  H  0.8934
   8.  H  0.8345
   9.  P  0.8985
  10.  H -1.2468
  11.  H  0.8373
  12.  H  0.7058
  13.  P  0.7330
  14.  H  0.8928
  15.  H -1.3053
  16.  H  0.7181
  17.  P  0.1841
  18.  H  0.8731
  19.  H -1.4705
  20.  H  0.9200


 NBO analysis skipped by request.
 Leave Link  607 at Tue Oct 25 18:16:31 2022, MaxMem=   268435456 cpu:               1.8 elap:               0.4
 (Enter /home/zhangjx/ssd/softwares/g16/l9999.exe)
 1\1\GINC-LOCALHOST\SP\RPBE1PBE\def2TZVP\Au4H12P4(2+)\ZHANGJX\25-Oct-20
 22\0\\#p pbe1pbe/def2TZVP pop=nboread int=ultrafine nosymm\\Au4L4-nosy
 mm\\2,1\Au,0,0.987805,0.987805,0.987805\Au,0,-0.987805,-0.987805,0.987
 805\Au,0,0.987805,-0.987805,-0.987805\Au,0,-0.987805,0.987805,-0.98780
 5\P,0,2.338767,2.338767,2.338767\H,0,3.215425,1.659319,3.215425\H,0,3.
 215425,3.215425,1.659319\H,0,1.659319,3.215425,3.215425\P,0,-2.338767,
 -2.338767,2.338767\H,0,-3.215425,-3.215425,1.659319\H,0,-1.659319,-3.2
 15425,3.215425\H,0,-3.215425,-1.659319,3.215425\P,0,2.338767,-2.338767
 ,-2.338767\H,0,3.215425,-3.215425,-1.659319\H,0,1.659319,-3.215425,-3.
 215425\H,0,3.215425,-1.659319,-3.215425\P,0,-2.338767,2.338767,-2.3387
 67\H,0,-1.659319,3.215425,-3.215425\H,0,-3.215425,1.659319,-3.215425\H
 ,0,-3.215425,3.215425,-1.659319\\Version=ES64L-G16RevA.03\HF=-1914.749
 0692\RMSD=3.724e-09\Dipole=0.,0.,0.\Quadrupole=0.,0.,0.,0.,0.,0.\PG=TD
  [4C3(.Au1P1),6SGD(H2)]\\@


 Not by the face shall a man be known, but by the mask.
                               -- Karen Blixen
 Job cpu time:       0 days  0 hours  6 minutes  8.7 seconds.
 Elapsed time:       0 days  0 hours  1 minutes 32.4 seconds.
 File lengths (MBytes):  RWF=     78 Int=      0 D2E=      0 Chk=      9 Scr=      1
 Normal termination of Gaussian 16 at Tue Oct 25 18:16:31 2022.
