 Entering Gaussian System, Link 0=/home/zhangjx/ssd/softwares/g16/g16
 Input=C-0e.gjf
 Output=C-0e.log
 Initial command:
 /home/zhangjx/ssd/softwares/g16/l1.exe "/home/zhangjx/ssd/scratch/Gau-812902.inp" -scrdir="/home/zhangjx/ssd/scratch/"
 Entering Link 1 = /home/zhangjx/ssd/softwares/g16/l1.exe PID=    812904.
  
 Copyright (c) 1988,1990,1992,1993,1995,1998,2003,2009,2016,
            Gaussian, Inc.  All Rights Reserved.
  
 This is part of the Gaussian(R) 16 program.  It is based on
 the Gaussian(R) 09 system (copyright 2009, Gaussian, Inc.),
 the Gaussian(R) 03 system (copyright 2003, Gaussian, Inc.),
 the Gaussian(R) 98 system (copyright 1998, Gaussian, Inc.),
 the Gaussian(R) 94 system (copyright 1995, Gaussian, Inc.),
 the Gaussian 92(TM) system (copyright 1992, Gaussian, Inc.),
 the Gaussian 90(TM) system (copyright 1990, Gaussian, Inc.),
 the Gaussian 88(TM) system (copyright 1988, Gaussian, Inc.),
 the Gaussian 86(TM) system (copyright 1986, Carnegie Mellon
 University), and the Gaussian 82(TM) system (copyright 1983,
 Carnegie Mellon University). Gaussian is a federally registered
 trademark of Gaussian, Inc.
  
 This software contains proprietary and confidential information,
 including trade secrets, belonging to Gaussian, Inc.
  
 This software is provided under written license and may be
 used, copied, transmitted, or stored only in accord with that
 written license.
  
 The following legend is applicable only to US Government
 contracts under FAR:
  
                    RESTRICTED RIGHTS LEGEND
  
 Use, reproduction and disclosure by the US Government is
 subject to restrictions as set forth in subparagraphs (a)
 and (c) of the Commercial Computer Software - Restricted
 Rights clause in FAR 52.227-19.
  
 Gaussian, Inc.
 340 Quinnipiac St., Bldg. 40, Wallingford CT 06492
  
  
 ---------------------------------------------------------------
 Warning -- This program may not be used in any manner that
 competes with the business of Gaussian, Inc. or will provide
 assistance to any competitor of Gaussian, Inc.  The licensee
 of this program is prohibited from giving any competitor of
 Gaussian, Inc. access to this program.  By using this program,
 the user acknowledges that Gaussian, Inc. is engaged in the
 business of creating and licensing software in the field of
 computational chemistry and represents and warrants to the
 licensee that it is not a competitor of Gaussian, Inc. and that
 it will not use this program in any manner prohibited above.
 ---------------------------------------------------------------
  

 Cite this work as:
 Gaussian 16, Revision A.03,
 M. J. Frisch, G. W. Trucks, H. B. Schlegel, G. E. Scuseria, 
 M. A. Robb, J. R. Cheeseman, G. Scalmani, V. Barone, 
 G. A. Petersson, H. Nakatsuji, X. Li, M. Caricato, A. V. Marenich, 
 J. Bloino, B. G. Janesko, R. Gomperts, B. Mennucci, H. P. Hratchian, 
 J. V. Ortiz, A. F. Izmaylov, J. L. Sonnenberg, D. Williams-Young, 
 F. Ding, F. Lipparini, F. Egidi, J. Goings, B. Peng, A. Petrone, 
 T. Henderson, D. Ranasinghe, V. G. Zakrzewski, J. Gao, N. Rega, 
 G. Zheng, W. Liang, M. Hada, M. Ehara, K. Toyota, R. Fukuda, 
 J. Hasegawa, M. Ishida, T. Nakajima, Y. Honda, O. Kitao, H. Nakai, 
 T. Vreven, K. Throssell, J. A. Montgomery, Jr., J. E. Peralta, 
 F. Ogliaro, M. J. Bearpark, J. J. Heyd, E. N. Brothers, K. N. Kudin, 
 V. N. Staroverov, T. A. Keith, R. Kobayashi, J. Normand, 
 K. Raghavachari, A. P. Rendell, J. C. Burant, S. S. Iyengar, 
 J. Tomasi, M. Cossi, J. M. Millam, M. Klene, C. Adamo, R. Cammi, 
 J. W. Ochterski, R. L. Martin, K. Morokuma, O. Farkas, 
 J. B. Foresman, and D. J. Fox, Gaussian, Inc., Wallingford CT, 2016.
 
 ******************************************
 Gaussian 16:  ES64L-G16RevA.03 25-Dec-2016
                25-Oct-2022 
 ******************************************
 %chk=C-0e.chk
 ----------------------------------------------------------------------
 #p pbe1pbe/def2TZVP gfinput pop=(minimal,nboread) int=ultrafine scf=(d
 symm,symm) symm=pg=Ih
 ----------------------------------------------------------------------
 1/38=1,172=1/1;
 2/12=2,17=6,18=5,19=2314885530818463817,40=1/2;
 3/5=44,7=101,11=2,24=10,25=1,30=1,74=-13,75=-5/1,2,3;
 4/9=4/1;
 5/5=2,15=2,17=200,38=5/2;
 6/7=2,8=2,9=2,10=2,28=1,40=2/1,7;
 99/5=1,9=1/99;
 Leave Link    1 at Tue Oct 25 18:17:44 2022, MaxMem=           0 cpu:               0.0 elap:               0.0
 (Enter /home/zhangjx/ssd/softwares/g16/l101.exe)
 ----
 C-0e
 ----
 Symbolic Z-matrix:
 Charge =  4 Multiplicity = 1
 C
 
 ITRead=  0
 MicOpt= -1
 NAtoms=      1 NQM=        1 NQMF=       0 NMMI=      0 NMMIF=      0
                NMic=       0 NMicF=      0.
                    Isotopes and Nuclear Properties:
 (Nuclear quadrupole moments (NQMom) in fm**2, nuclear magnetic moments (NMagM)
  in nuclear magnetons)

  Atom         1
 IAtWgt=          12
 AtmWgt=  12.0000000
 NucSpn=           0
 AtZEff=  -0.0000000
 NQMom=    0.0000000
 NMagM=    0.0000000
 AtZNuc=   6.0000000
 Leave Link  101 at Tue Oct 25 18:17:44 2022, MaxMem=   104857600 cpu:               0.1 elap:               0.1
 (Enter /home/zhangjx/ssd/softwares/g16/l202.exe)
                          Input orientation:                          
 ---------------------------------------------------------------------
 Center     Atomic      Atomic             Coordinates (Angstroms)
 Number     Number       Type             X           Y           Z
 ---------------------------------------------------------------------
      1          6           0        0.000000    0.000000    0.000000
 ---------------------------------------------------------------------
 Symm:  InNGrp=IH   InAxis=0 RotPrA=F RotCs=T.
 Stoichiometry    C(4+)
 Framework group  IH[O(C)]
 Deg. of freedom     0
 Full point group                 IH      NOp 120
 Largest Abelian subgroup         C2H     NOp   4
 Largest concise Abelian subgroup C1      NOp   1
                         Standard orientation:                         
 ---------------------------------------------------------------------
 Center     Atomic      Atomic             Coordinates (Angstroms)
 Number     Number       Type             X           Y           Z
 ---------------------------------------------------------------------
      1          6           0        0.000000    0.000000    0.000000
 ---------------------------------------------------------------------
 Leave Link  202 at Tue Oct 25 18:17:44 2022, MaxMem=   104857600 cpu:               0.0 elap:               0.0
 (Enter /home/zhangjx/ssd/softwares/g16/l301.exe)
 Standard basis: def2TZVP (5D, 7F)
 Ernie: Thresh=  0.10000D-02 Tol=  0.10000D-05 Strict=F.
 AO basis set in the form of general basis input (Overlap normalization):
      1 0
 S   6 1.00       0.000000000000
      0.1357534968D+05  0.6064550360D-03
      0.2035233368D+04  0.4697908888D-02
      0.4632256236D+03  0.2433247765D-01
      0.1312001960D+03  0.9739996831D-01
      0.4285301589D+02  0.3019558425D+00
      0.1558418577D+02  0.6623360914D+00
 S   2 1.00       0.000000000000
      0.6206713851D+01  0.6559530854D+00
      0.2576489653D+01  0.3758563329D+00
 S   1 1.00       0.000000000000
      0.5769633942D+00  0.1000000000D+01
 S   1 1.00       0.000000000000
      0.2297283136D+00  0.1000000000D+01
 S   1 1.00       0.000000000000
      0.9516444003D-01  0.1000000000D+01
 P   4 1.00       0.000000000000
      0.3469723224D+02  0.1132722000D-01
      0.7958262283D+01  0.7616965920D-01
      0.2378082688D+01  0.3019225220D+00
      0.8143320818D+00  0.7278502735D+00
 P   1 1.00       0.000000000000
      0.2888754725D+00  0.1000000000D+01
 P   1 1.00       0.000000000000
      0.1005682367D+00  0.1000000000D+01
 D   1 1.00       0.000000000000
      0.1097000000D+01  0.1000000000D+01
 D   1 1.00       0.000000000000
      0.3180000000D+00  0.1000000000D+01
 F   1 1.00       0.000000000000
      0.7610000000D+00  0.1000000000D+01
 ****

 There are    13 symmetry adapted cartesian basis functions of AG  symmetry.
 There are     4 symmetry adapted cartesian basis functions of BG  symmetry.
 There are     7 symmetry adapted cartesian basis functions of AU  symmetry.
 There are    12 symmetry adapted cartesian basis functions of BU  symmetry.
 There are    11 symmetry adapted basis functions of AG  symmetry.
 There are     4 symmetry adapted basis functions of BG  symmetry.
 There are     6 symmetry adapted basis functions of AU  symmetry.
 There are    10 symmetry adapted basis functions of BU  symmetry.
    31 basis functions,    51 primitive gaussians,    36 cartesian basis functions
     1 alpha electrons        1 beta electrons
       nuclear repulsion energy         0.0000000000 Hartrees.
 IExCor= 1009 DFT=T Ex+Corr=PBE1PBE ExCW=0 ScaHFX=  0.250000
 ScaDFX=  0.750000  0.750000  1.000000  1.000000 ScalE2=  1.000000  1.000000
 IRadAn=      5 IRanWt=     -1 IRanGd=            0 ICorTp=0 IEmpDi=  4
 NAtoms=    1 NActive=    1 NUniq=    1 SFac= 1.00D+00 NAtFMM=   60 NAOKFM=F Big=F
 Integral buffers will be    131072 words long.
 Raffenetti 2 integral format.
 Two-electron integral symmetry is turned on.
 Leave Link  301 at Tue Oct 25 18:17:44 2022, MaxMem=   104857600 cpu:               0.0 elap:               0.0
 (Enter /home/zhangjx/ssd/softwares/g16/l302.exe)
 NPDir=0 NMtPBC=     1 NCelOv=     1 NCel=       1 NClECP=     1 NCelD=      1
         NCelK=      1 NCelE2=     1 NClLst=     1 CellRange=     0.0.
 One-electron integrals computed using PRISM.
 One-electron integral symmetry used in STVInt
 120 Symmetry operations used in ECPInt.
 ECPInt:  NShTT=      66 NPrTT=     232 LenC2=      67 LenP2D=     232.
 LDataN:  DoStor=T MaxTD1= 6 Len=  172
 NBasis=    31 RedAO= T EigKep=  2.86D-02  NBF=    11     4     6    10
 NBsUse=    31 1.00D-06 EigRej= -1.00D+00 NBFU=    11     4     6    10
 Precomputing XC quadrature grid using
 IXCGrd= 4 IRadAn=           5 IRanWt=          -1 IRanGd=           0 AccXCQ= 0.00D+00.
 Generated NRdTot=       0 NPtTot=           0 NUsed=           0 NTot=          32
 NSgBfM=    36    36    36    36    36 MxSgAt=     1 MxSgA2=     1.
 Leave Link  302 at Tue Oct 25 18:17:45 2022, MaxMem=   104857600 cpu:               0.1 elap:               0.1
 (Enter /home/zhangjx/ssd/softwares/g16/l303.exe)
 DipDrv:  MaxL=1.
 Leave Link  303 at Tue Oct 25 18:17:45 2022, MaxMem=   104857600 cpu:               0.0 elap:               0.0
 (Enter /home/zhangjx/ssd/softwares/g16/l401.exe)
 ExpMin= 9.52D-02 ExpMax= 1.36D+04 ExpMxC= 4.63D+02 IAcc=3 IRadAn=         5 AccDes= 0.00D+00
 Harris functional with IExCor= 1009 and IRadAn=       5 diagonalized for initial guess.
 HarFok:  IExCor= 1009 AccDes= 0.00D+00 IRadAn=         5 IDoV= 1 UseB2=F ITyADJ=14
 ICtDFT=  3500011 ScaDFX=  1.000000  1.000000  1.000000  1.000000
 FoFCou: FMM=F IPFlag=           0 FMFlag=      100000 FMFlg1=           0
         NFxFlg=           0 DoJE=T BraDBF=F KetDBF=T FulRan=T
         wScrn=  0.000000 ICntrl=       500 IOpCl=  0 I1Cent=   200000004 NGrid=           0
         NMat0=    1 NMatS0=      1 NMatT0=    0 NMatD0=    1 NMtDS0=    0 NMtDT0=    0
 Petite list used in FoFCou.
 Harris En= -36.4315475783400    
 JPrj=0 DoOrth=F DoCkMO=F.
 Initial guess orbital symmetries:
       Occupied  (AG)
       Virtual   (AG) (T1U) (T1U) (T1U) (AG) (T1U) (T1U) (T1U)
                 (HG) (HG) (HG) (HG) (HG) (AG) (T1U) (T1U) (T1U)
                 (?A) (?A) (?A) (?A) (?A) (?A) (?A) (HG) (HG) (HG)
                 (HG) (HG) (AG)
 The electronic state of the initial guess is 1-AG.
 Leave Link  401 at Tue Oct 25 18:17:45 2022, MaxMem=   104857600 cpu:               0.1 elap:               0.1
 (Enter /home/zhangjx/ssd/softwares/g16/l502.exe)
 Keep R1 ints in memory in symmetry-blocked form, NReq=2075543.
 FoFCou: FMM=F IPFlag=           0 FMFlag=           0 FMFlg1=           0
         NFxFlg=           0 DoJE=F BraDBF=F KetDBF=F FulRan=T
         wScrn=  0.000000 ICntrl=       600 IOpCl=  0 I1Cent=           0 NGrid=           0
         NMat0=    1 NMatS0=    496 NMatT0=    0 NMatD0=    1 NMtDS0=    0 NMtDT0=    0
 Petite list used in FoFCou.
 Closed shell SCF:
 Using DIIS extrapolation, IDIIS=  1040.
 NGot=   104857600 LenX=   104818934 LenY=   104817197
 Requested convergence on RMS density matrix=1.00D-08 within 128 cycles.
 Requested convergence on MAX density matrix=1.00D-06.
 Requested convergence on             energy=1.00D-06.
 No special actions if energy rises.
 Integral accuracy reduced to 1.0D-05 until final iterations.

 Cycle   1  Pass 0  IDiag  1:
 E= -32.3561339729962    
 DIIS: error= 4.58D-02 at cycle   1 NSaved=   1.
 NSaved= 1 IEnMin= 1 EnMin= -32.3561339729962     IErMin= 1 ErrMin= 4.58D-02
 ErrMax= 4.58D-02  0.00D+00 EMaxC= 1.00D-01 BMatC= 2.34D-02 BMatP= 2.34D-02
 IDIUse=3 WtCom= 5.42D-01 WtEn= 4.58D-01
 Coeff-Com:  0.100D+01
 Coeff-En:   0.100D+01
 Coeff:      0.100D+01
 Gap=    11.127 Goal=   None    Shift=    0.000
 GapD=   11.127 DampG=2.000 DampE=0.500 DampFc=1.0000 IDamp=-1.
 RMSDP=9.03D-04 MaxDP=1.22D-02              OVMax= 1.13D-02

 Cycle   2  Pass 0  IDiag  1:
 E= -32.3593750470134     Delta-E=       -0.003241074017 Rises=F Damp=F
 DIIS: error= 3.47D-03 at cycle   2 NSaved=   2.
 NSaved= 2 IEnMin= 2 EnMin= -32.3593750470134     IErMin= 2 ErrMin= 3.47D-03
 ErrMax= 3.47D-03  0.00D+00 EMaxC= 1.00D-01 BMatC= 1.25D-04 BMatP= 2.34D-02
 IDIUse=3 WtCom= 9.65D-01 WtEn= 3.47D-02
 Coeff-Com:  0.524D-01 0.948D+00
 Coeff-En:   0.000D+00 0.100D+01
 Coeff:      0.505D-01 0.949D+00
 Gap=    10.961 Goal=   None    Shift=    0.000
 RMSDP=2.45D-05 MaxDP=5.27D-04 DE=-3.24D-03 OVMax= 2.35D-04

 Cycle   3  Pass 0  IDiag  1:
 E= -32.3593833745096     Delta-E=       -0.000008327496 Rises=F Damp=F
 DIIS: error= 3.74D-05 at cycle   3 NSaved=   3.
 NSaved= 3 IEnMin= 3 EnMin= -32.3593833745096     IErMin= 3 ErrMin= 3.74D-05
 ErrMax= 3.74D-05  0.00D+00 EMaxC= 1.00D-01 BMatC= 1.27D-08 BMatP= 1.25D-04
 IDIUse=1 WtCom= 1.00D+00 WtEn= 0.00D+00
 Coeff-Com: -0.107D-02-0.110D-01 0.101D+01
 Coeff:     -0.107D-02-0.110D-01 0.101D+01
 Gap=    10.962 Goal=   None    Shift=    0.000
 RMSDP=7.73D-07 MaxDP=1.10D-05 DE=-8.33D-06 OVMax= 9.66D-06

 Initial convergence to 1.0D-05 achieved.  Increase integral accuracy.
 Cycle   4  Pass 1  IDiag  1:
 E= -32.3593833768597     Delta-E=       -0.000000002350 Rises=F Damp=F
 DIIS: error= 8.34D-08 at cycle   1 NSaved=   1.
 NSaved= 1 IEnMin= 1 EnMin= -32.3593833768597     IErMin= 1 ErrMin= 8.34D-08
 ErrMax= 8.34D-08  0.00D+00 EMaxC= 1.00D-01 BMatC= 4.25D-14 BMatP= 4.25D-14
 IDIUse=1 WtCom= 1.00D+00 WtEn= 0.00D+00
 Coeff-Com:  0.100D+01
 Coeff:      0.100D+01
 Gap=    10.962 Goal=   None    Shift=    0.000
 RMSDP=7.73D-07 MaxDP=1.10D-05 DE=-2.35D-09 OVMax= 1.58D-08

 Cycle   5  Pass 1  IDiag  1:
 E= -32.3593833768597     Delta-E=       -0.000000000000 Rises=F Damp=F
 DIIS: error= 3.73D-09 at cycle   2 NSaved=   2.
 NSaved= 2 IEnMin= 2 EnMin= -32.3593833768597     IErMin= 2 ErrMin= 3.73D-09
 ErrMax= 3.73D-09  0.00D+00 EMaxC= 1.00D-01 BMatC= 1.43D-16 BMatP= 4.25D-14
 IDIUse=1 WtCom= 1.00D+00 WtEn= 0.00D+00
 Coeff-Com:  0.333D-01 0.967D+00
 Coeff:      0.333D-01 0.967D+00
 Gap=    10.962 Goal=   None    Shift=    0.000
 RMSDP=3.20D-11 MaxDP=5.63D-10 DE=-3.55D-14 OVMax= 2.76D-10

 SCF Done:  E(RPBE1PBE) =  -32.3593833769     A.U. after    5 cycles
            NFock=  5  Conv=0.32D-10     -V/T= 2.0017
 KE= 3.230594701909D+01 PE=-6.818673604440D+01 EE= 3.521405648444D+00
 Leave Link  502 at Tue Oct 25 18:17:45 2022, MaxMem=   104857600 cpu:               0.2 elap:               0.2
 (Enter /home/zhangjx/ssd/softwares/g16/l601.exe)
 Copying SCF densities to generalized density rwf, IOpCl= 0 IROHF=0.

 **********************************************************************

            Population analysis using the SCF density.

 **********************************************************************

 Orbital symmetries:
       Occupied  (AG)
       Virtual   (AG) (T1U) (T1U) (T1U) (AG) (T1U) (T1U) (T1U)
                 (HG) (HG) (HG) (HG) (HG) (AG) (T1U) (T1U) (T1U)
                 (?A) (?A) (?A) (?A) (?A) (?A) (?A) (HG) (HG) (HG)
                 (HG) (HG) (AG)
 The electronic state is 1-AG.
 Alpha  occ. eigenvalues --  -13.46551
 Alpha virt. eigenvalues --   -2.50393  -2.25223  -2.25223  -2.25223  -1.01957
 Alpha virt. eigenvalues --   -0.94707  -0.94707  -0.94707  -0.85402  -0.85402
 Alpha virt. eigenvalues --   -0.85402  -0.85402  -0.85402  -0.33233  -0.31896
 Alpha virt. eigenvalues --   -0.31896  -0.31896   0.84265   0.84265   0.84265
 Alpha virt. eigenvalues --    0.84265   0.84265   0.84265   0.84265   0.86206
 Alpha virt. eigenvalues --    0.86206   0.86206   0.86206   0.86206  18.28224
          Condensed to atoms (all electrons):
               1
     1  C    2.000000
 Mulliken charges:
               1
     1  C    4.000000
 Sum of Mulliken charges =   4.00000
 Mulliken charges with hydrogens summed into heavy atoms:
               1
     1  C    4.000000
 Electronic spatial extent (au):  <R**2>=              0.1931
 Charge=              4.0000 electrons
 Dipole moment (field-independent basis, Debye):
    X=              0.0000    Y=              0.0000    Z=              0.0000  Tot=              0.0000
 Quadrupole moment (field-independent basis, Debye-Ang):
   XX=             -0.0866   YY=             -0.0866   ZZ=             -0.0866
   XY=             -0.0000   XZ=              0.0000   YZ=              0.0000
 Traceless Quadrupole moment (field-independent basis, Debye-Ang):
   XX=             -0.0000   YY=             -0.0000   ZZ=             -0.0000
   XY=             -0.0000   XZ=              0.0000   YZ=              0.0000
 Octapole moment (field-independent basis, Debye-Ang**2):
  XXX=              0.0000  YYY=              0.0000  ZZZ=              0.0000  XYY=              0.0000
  XXY=              0.0000  XXZ=              0.0000  XZZ=              0.0000  YZZ=              0.0000
  YYZ=              0.0000  XYZ=              0.0000
 Hexadecapole moment (field-independent basis, Debye-Ang**3):
 XXXX=             -0.0037 YYYY=             -0.0037 ZZZZ=             -0.0037 XXXY=             -0.0000
 XXXZ=              0.0000 YYYX=             -0.0000 YYYZ=              0.0000 ZZZX=              0.0000
 ZZZY=              0.0000 XXYY=             -0.0012 XXZZ=             -0.0012 YYZZ=             -0.0012
 XXYZ=              0.0000 YYXZ=              0.0000 ZZXY=             -0.0000
 N-N= 0.000000000000D+00 E-N=-6.818673604257D+01  KE= 3.230594701909D+01
 Symmetry AG   KE= 3.230594701909D+01
 Symmetry BG   KE= 7.339777744968D-31
 Symmetry AU   KE= 0.000000000000D+00
 Symmetry BU   KE= 0.000000000000D+00
 No NMR shielding tensors so no spin-rotation constants.
 Leave Link  601 at Tue Oct 25 18:17:45 2022, MaxMem=   104857600 cpu:               0.1 elap:               0.1
 (Enter /home/zhangjx/ssd/softwares/g16/l607.exe)
 ******************************Gaussian NBO Version 3.1******************************
             N A T U R A L   A T O M I C   O R B I T A L   A N D
          N A T U R A L   B O N D   O R B I T A L   A N A L Y S I S
 ******************************Gaussian NBO Version 3.1******************************

       /RESON  / : Allow strongly delocalized NBO set
       /SKIPBO / : Skip NBO transformation step
       /ARCHIVE/ : Write the archive file to LFN 47
       /BNDIDX / : Print bond indices based on the NAO density matrix
       /FILE   / : Set to C-0E                                                

 Analyzing the SCF density

 Job title: C-0e                                                            

 Storage needed:      3127 in NPA ( 104857591 available)
 GSVD:  LWork=        -599 too small for GESVD, short by        3485 words or        3485 for optimal perf.


 NATURAL POPULATIONS:  Natural atomic orbital occupancies 
                                                          
   NAO  Atom  No  lang   Type(AO)    Occupancy      Energy
 ----------------------------------------------------------
     1    C    1  S      Cor( 1S)     2.00000     -13.46551
     2    C    1  S      Val( 5S)     0.00000      10.13168
     3    C    1  S      Ryd( 4S)     0.00000       6.53609
     4    C    1  S      Ryd( 2S)     0.00000      -1.59859
     5    C    1  S      Ryd( 3S)     0.00000      -0.64277
     6    C    1  px     Ryd( 2p)     0.00000      -1.87387
     7    C    1  px     Ryd( 4p)     0.00000      -0.79505
     8    C    1  px     Val( 3p)     0.00000      -0.84933
     9    C    1  py     Ryd( 2p)     0.00000      -1.87387
    10    C    1  py     Val( 4p)     0.00000      -0.79505
    11    C    1  py     Ryd( 3p)     0.00000      -0.84933
    12    C    1  pz     Ryd( 2p)     0.00000      -1.87387
    13    C    1  pz     Val( 4p)     0.00000      -0.79505
    14    C    1  pz     Ryd( 3p)     0.00000      -0.84933
    15    C    1  dxy    Ryd( 3d)     0.00000      -0.84598
    16    C    1  dxy    Ryd( 4d)     0.00000       0.85402
    17    C    1  dxz    Ryd( 3d)     0.00000      -0.84598
    18    C    1  dxz    Ryd( 4d)     0.00000       0.85402
    19    C    1  dyz    Ryd( 3d)     0.00000      -0.84598
    20    C    1  dyz    Ryd( 4d)     0.00000       0.85402
    21    C    1  dx2y2  Ryd( 3d)     0.00000      -0.84598
    22    C    1  dx2y2  Ryd( 4d)     0.00000       0.85402
    23    C    1  dz2    Ryd( 3d)     0.00000      -0.84598
    24    C    1  dz2    Ryd( 4d)     0.00000       0.85402
    25    C    1  f(0)   Ryd( 4f)     0.00000       0.84265
    26    C    1  f(C1)  Ryd( 4f)     0.00000       0.84265
    27    C    1  f(S1)  Ryd( 4f)     0.00000       0.84265
    28    C    1  f(C2)  Ryd( 4f)     0.00000       0.84265
    29    C    1  f(S2)  Ryd( 4f)     0.00000       0.84265
    30    C    1  f(C3)  Ryd( 4f)     0.00000       0.84265
    31    C    1  f(S3)  Ryd( 4f)     0.00000       0.84265

 WARNING:  Population inversion found on atom  C    1


 Summary of Natural Population Analysis:                  
                                                          
                                       Natural Population 
                Natural  -----------------------------------------------
    Atom  No    Charge         Core      Valence    Rydberg      Total
 -----------------------------------------------------------------------
      C    1    4.00000      2.00000     0.00000    0.00000     2.00000
 =======================================================================
   * Total *    4.00000      2.00000     0.00000    0.00000     2.00000

                                 Natural Population      
 --------------------------------------------------------
   Core                       2.00000 (100.0000% of   2)
   Valence                    0.00000 (  0.0000% of   0)
   Natural Minimal Basis      2.00000 (100.0000% of   2)
   Natural Rydberg Basis      0.00000 (  0.0000% of   2)
 --------------------------------------------------------

    Atom  No          Natural Electron Configuration
 ----------------------------------------------------------------------------
      C    1      [core]


 Wiberg bond index matrix in the NAO basis:                                    

     Atom    1
     ---- ------
   1.  C  0.0000


 Wiberg bond index, Totals by atom:                                            

     Atom    1
     ---- ------
   1.  C  0.0000


 Atom-atom overlap-weighted NAO bond order:                                    

     Atom    1
     ---- ------
   1.  C  0.0000


 Atom-atom overlap-weighted NAO bond order, Totals by atom:                    

     Atom    1
     ---- ------
   1.  C  0.0000


 MO bond order:                                                                

     Atom    1
     ---- ------
   1.  C  0.0000


 MO atomic valencies:                                                          

     Atom    1
     ---- ------
   1.  C  0.0000


 NBO analysis skipped by request.
 Leave Link  607 at Tue Oct 25 18:17:45 2022, MaxMem=   104857600 cpu:               0.3 elap:               0.3
 (Enter /home/zhangjx/ssd/softwares/g16/l9999.exe)
 1\1\GINC-LOCALHOST\SP\RPBE1PBE\def2TZVP\C1(4+)\ZHANGJX\25-Oct-2022\0\\
 #p pbe1pbe/def2TZVP gfinput pop=(minimal,nboread) int=ultrafine scf=(d
 symm,symm) symm=pg=Ih\\C-0e\\4,1\C\\Version=ES64L-G16RevA.03\State=1-A
 G\HF=-32.3593834\RMSD=3.199e-11\Dipole=0.,0.,0.\Quadrupole=0.,0.,0.,0.
 ,0.,0.\PG=IH [O(C1)]\\@


 SIC AS THE CAWSE OF EWERY THING IS, SIC WILBE THE EFFECT.
 -- PROVERBS AND REASONS OF THE YEAR 1585
           AS REPRINTED IN PAISLEY MAGAZINE 1828.
 Job cpu time:       0 days  0 hours  0 minutes  0.9 seconds.
 Elapsed time:       0 days  0 hours  0 minutes  0.8 seconds.
 File lengths (MBytes):  RWF=      6 Int=      0 D2E=      0 Chk=      1 Scr=      1
 Normal termination of Gaussian 16 at Tue Oct 25 18:17:45 2022.
