CF3_n1-nosymm                                                           
SP        RPBE1PBE                                                    def2TZVP            
Number of atoms                            I                4
Info1-9                                    I   N=           9
          16          15           0           0           0         110
           1          18        -302
Full Title                                 C   N=           2
CF3_n1-nosymm           
Route                                      C   N=           5
#p pbe1pbe/def2TZVP gfinput pop=nbo6read int=ultrafine      
Charge                                     I               -1
Multiplicity                               I                1
Number of electrons                        I               34
Number of alpha electrons                  I               17
Number of beta electrons                   I               17
Number of basis functions                  I              124
Number of independent functions            I              124
Number of point charges in /Mol/           I                0
Number of translation vectors              I                0
Atomic numbers                             I   N=           4
           6           9           9           9
Nuclear charges                            R   N=           4
  6.00000000E+00  9.00000000E+00  9.00000000E+00  9.00000000E+00
Current cartesian coordinates              R   N=          12
  2.69144976E-17 -2.15315981E-16  1.03685682E+00  7.70309690E-08  2.37523078E+00
 -2.30412417E-01  2.05701016E+00 -1.18761546E+00 -2.30412417E-01 -2.05701023E+00
 -1.18761532E+00 -2.30412417E-01
Number of symbols in /Mol/                 I                0
Force Field                                I                0
Atom Types                                 C   N=           4
                                                
Int Atom Types                             I   N=           4
           0           0           0           0
MM charges                                 R   N=           4
  0.00000000E+00  0.00000000E+00  0.00000000E+00  0.00000000E+00
Integer atomic weights                     I   N=           4
          12          19          19          19
Real atomic weights                        R   N=           4
  1.20000000E+01  1.89984032E+01  1.89984032E+01  1.89984032E+01
Atom fragment info                         I   N=           4
           0           0           0           0
Atom residue num                           I   N=           4
           0           0           0           0
Nuclear spins                              I   N=           4
           0           1           1           1
Nuclear ZEff                               R   N=           4
 -3.60000000E+00 -6.75000000E+00 -6.75000000E+00 -6.75000000E+00
Nuclear ZNuc                               R   N=           4
  6.00000000E+00  9.00000000E+00  9.00000000E+00  9.00000000E+00
Nuclear QMom                               R   N=           4
  0.00000000E+00  0.00000000E+00  0.00000000E+00  0.00000000E+00
Nuclear GFac                               R   N=           4
  0.00000000E+00  2.62886700E+00  2.62886700E+00  2.62886700E+00
MicOpt                                     I   N=           4
          -1          -1          -1          -1
Number of residues                         I                0
Number of secondary structures             I                0
SymInf integers                            I   N=          26
           2           2           1           1           1          -1
           1           1           0           0           0           0
           0           0           0           0           0           0
           0           0           0           0           0           0
           0           0
RotTr to input orientation                 R   N=          12
  1.00000000E+00 -3.24309409E-08  0.00000000E+00  3.24309409E-08  1.00000000E+00
  0.00000000E+00  0.00000000E+00  0.00000000E+00  1.00000000E+00  2.69144976E-17
 -2.15315981E-16  1.71793284E-07
Number of contracted shells                I               44
Number of primitive shells                 I               80
Pure/Cartesian d shells                    I                0
Pure/Cartesian f shells                    I                0
Highest angular momentum                   I                3
Largest degree of contraction              I                6
Shell types                                I   N=          44
           0           0           0           0           0           1
           1           1          -2          -2          -3           0
           0           0           0           0           1           1
           1          -2          -2          -3           0           0
           0           0           0           1           1           1
          -2          -2          -3           0           0           0
           0           0           1           1           1          -2
          -2          -3
Number of primitives per shell             I   N=          44
           6           2           1           1           1           4
           1           1           1           1           1           6
           2           1           1           1           4           1
           1           1           1           1           6           2
           1           1           1           4           1           1
           1           1           1           6           2           1
           1           1           4           1           1           1
           1           1
Shell to atom map                          I   N=          44
           1           1           1           1           1           1
           1           1           1           1           1           2
           2           2           2           2           2           2
           2           2           2           2           3           3
           3           3           3           3           3           3
           3           3           3           4           4           4
           4           4           4           4           4           4
           4           4
Primitive exponents                        R   N=          80
  1.35753497E+04  2.03523337E+03  4.63225624E+02  1.31200196E+02  4.28530159E+01
  1.55841858E+01  6.20671385E+00  2.57648965E+00  5.76963394E-01  2.29728314E-01
  9.51644400E-02  3.46972322E+01  7.95826228E+00  2.37808269E+00  8.14332082E-01
  2.88875473E-01  1.00568237E-01  1.09700000E+00  3.18000000E-01  7.61000000E-01
  3.54791004E+04  5.31847290E+03  1.21048110E+03  3.42855181E+02  1.12019432E+02
  4.07147402E+01  1.60396781E+01  6.50381867E+00  1.54404775E+00  6.12234529E-01
  2.40279797E-01  8.02339005E+01  1.85940107E+01  5.68679027E+00  1.95110063E+00
  6.69702113E-01  2.16513004E-01  3.10700000E+00  8.55000000E-01  1.91700000E+00
  3.54791004E+04  5.31847290E+03  1.21048110E+03  3.42855181E+02  1.12019432E+02
  4.07147402E+01  1.60396781E+01  6.50381867E+00  1.54404775E+00  6.12234529E-01
  2.40279797E-01  8.02339005E+01  1.85940107E+01  5.68679027E+00  1.95110063E+00
  6.69702113E-01  2.16513004E-01  3.10700000E+00  8.55000000E-01  1.91700000E+00
  3.54791004E+04  5.31847290E+03  1.21048110E+03  3.42855181E+02  1.12019432E+02
  4.07147402E+01  1.60396781E+01  6.50381867E+00  1.54404775E+00  6.12234529E-01
  2.40279797E-01  8.02339005E+01  1.85940107E+01  5.68679027E+00  1.95110063E+00
  6.69702113E-01  2.16513004E-01  3.10700000E+00  8.55000000E-01  1.91700000E+00
Contraction coefficients                   R   N=          80
  6.06455036E-04  4.69790889E-03  2.43324776E-02  9.73999683E-02  3.01955843E-01
  6.62336091E-01  6.55953085E-01  3.75856333E-01  1.00000000E+00  1.00000000E+00
  1.00000000E+00  1.13272200E-02  7.61696592E-02  3.01922522E-01  7.27850273E-01
  1.00000000E+00  1.00000000E+00  1.00000000E+00  1.00000000E+00  1.00000000E+00
  5.61849911E-04  4.35519738E-03  2.26182471E-02  9.14030551E-02  2.91168707E-01
  6.77727086E-01  6.32964179E-01  4.01364757E-01  1.00000000E+00  1.00000000E+00
  1.00000000E+00  1.23213451E-02  8.57133954E-02  3.26331055E-01  6.99711146E-01
  1.00000000E+00  1.00000000E+00  1.00000000E+00  1.00000000E+00  1.00000000E+00
  5.61849911E-04  4.35519738E-03  2.26182471E-02  9.14030551E-02  2.91168707E-01
  6.77727086E-01  6.32964179E-01  4.01364757E-01  1.00000000E+00  1.00000000E+00
  1.00000000E+00  1.23213451E-02  8.57133954E-02  3.26331055E-01  6.99711146E-01
  1.00000000E+00  1.00000000E+00  1.00000000E+00  1.00000000E+00  1.00000000E+00
  5.61849911E-04  4.35519738E-03  2.26182471E-02  9.14030551E-02  2.91168707E-01
  6.77727086E-01  6.32964179E-01  4.01364757E-01  1.00000000E+00  1.00000000E+00
  1.00000000E+00  1.23213451E-02  8.57133954E-02  3.26331055E-01  6.99711146E-01
  1.00000000E+00  1.00000000E+00  1.00000000E+00  1.00000000E+00  1.00000000E+00
Coordinates of each shell                  R   N=         132
  0.00000000E+00  0.00000000E+00  1.03685665E+00  0.00000000E+00  0.00000000E+00
  1.03685665E+00  0.00000000E+00  0.00000000E+00  1.03685665E+00  0.00000000E+00
  0.00000000E+00  1.03685665E+00  0.00000000E+00  0.00000000E+00  1.03685665E+00
  0.00000000E+00  0.00000000E+00  1.03685665E+00  0.00000000E+00  0.00000000E+00
  1.03685665E+00  0.00000000E+00  0.00000000E+00  1.03685665E+00  0.00000000E+00
  0.00000000E+00  1.03685665E+00  0.00000000E+00  0.00000000E+00  1.03685665E+00
  0.00000000E+00  0.00000000E+00  1.03685665E+00  0.00000000E+00  2.37523078E+00
 -2.30412588E-01  0.00000000E+00  2.37523078E+00 -2.30412588E-01  0.00000000E+00
  2.37523078E+00 -2.30412588E-01  0.00000000E+00  2.37523078E+00 -2.30412588E-01
  0.00000000E+00  2.37523078E+00 -2.30412588E-01  0.00000000E+00  2.37523078E+00
 -2.30412588E-01  0.00000000E+00  2.37523078E+00 -2.30412588E-01  0.00000000E+00
  2.37523078E+00 -2.30412588E-01  0.00000000E+00  2.37523078E+00 -2.30412588E-01
  0.00000000E+00  2.37523078E+00 -2.30412588E-01  0.00000000E+00  2.37523078E+00
 -2.30412588E-01  2.05701020E+00 -1.18761539E+00 -2.30412588E-01  2.05701020E+00
 -1.18761539E+00 -2.30412588E-01  2.05701020E+00 -1.18761539E+00 -2.30412588E-01
  2.05701020E+00 -1.18761539E+00 -2.30412588E-01  2.05701020E+00 -1.18761539E+00
 -2.30412588E-01  2.05701020E+00 -1.18761539E+00 -2.30412588E-01  2.05701020E+00
 -1.18761539E+00 -2.30412588E-01  2.05701020E+00 -1.18761539E+00 -2.30412588E-01
  2.05701020E+00 -1.18761539E+00 -2.30412588E-01  2.05701020E+00 -1.18761539E+00
 -2.30412588E-01  2.05701020E+00 -1.18761539E+00 -2.30412588E-01 -2.05701020E+00
 -1.18761539E+00 -2.30412588E-01 -2.05701020E+00 -1.18761539E+00 -2.30412588E-01
 -2.05701020E+00 -1.18761539E+00 -2.30412588E-01 -2.05701020E+00 -1.18761539E+00
 -2.30412588E-01 -2.05701020E+00 -1.18761539E+00 -2.30412588E-01 -2.05701020E+00
 -1.18761539E+00 -2.30412588E-01 -2.05701020E+00 -1.18761539E+00 -2.30412588E-01
 -2.05701020E+00 -1.18761539E+00 -2.30412588E-01 -2.05701020E+00 -1.18761539E+00
 -2.30412588E-01 -2.05701020E+00 -1.18761539E+00 -2.30412588E-01 -2.05701020E+00
 -1.18761539E+00 -2.30412588E-01
Num ILSW                                   I              100
ILSW                                       I   N=         100
           0           0           0           0           2           0
           0           0           0           0        1009          -1
           5           0           0           0           0           0
           0           0           0           0           0           0
           1           0           0           0           0           0
           0           0      100000           0          -1           0
           0           0           0           0           0           0
           0           0           0           1           0           0
           0 -2000000000           1           0           0           0
           0           0           4          52           0           0
           0           0          13           0           0           0
           0           0           0           4           0           1
           0           0           0           0           0           0
           0           0           0           0           0           0
           0           0           0           0           0           0
           0           0           0           0           0           0
           0           0           0           0
Num RLSW                                   I               52
RLSW                                       R   N=          52
  7.50000000E-01  7.50000000E-01  1.00000000E+00  1.00000000E+00  2.50000000E-01
  0.00000000E+00  0.00000000E+00  1.00000000E+00  0.00000000E+00  0.00000000E+00
  0.00000000E+00  0.00000000E+00  1.00000000E+00  0.00000000E+00  0.00000000E+00
  0.00000000E+00  0.00000000E+00  1.00000000E+00  0.00000000E+00  0.00000000E+00
  0.00000000E+00  0.00000000E+00  1.00000000E+00  0.00000000E+00  0.00000000E+00
  0.00000000E+00  0.00000000E+00  1.00000000E+00  0.00000000E+00  0.00000000E+00
  0.00000000E+00  0.00000000E+00  1.00000000E+00  0.00000000E+00  0.00000000E+00
  0.00000000E+00  0.00000000E+00  0.00000000E+00  1.00000000E+00  1.00000000E+00
  0.00000000E+00  1.00000000E+00  0.00000000E+00  0.00000000E+00  0.00000000E+00
  0.00000000E+00  0.00000000E+00  0.00000000E+00  0.00000000E+00  0.00000000E+00
  0.00000000E+00  0.00000000E+00
ECP-MxAtEC                                 I           250000
ECP-MaxLECP                                I               10
ECP-MaxAtL                                 I          2250000
ECP-MxTECP                                 I         11250000
ECP-LenNCZ                                 I                0
ECP-KFirst                                 I   N=          40
           0           0           0           0           0           0
           0           0           0           0           0           0
           0           0           0           0           0           0
           0           0           0           0           0           0
           0           0           0           0           0           0
           0           0           0           0           0           0
           0           0           0           0
ECP-KLast                                  I   N=          40
           0           0           0           0           0           0
           0           0           0           0           0           0
           0           0           0           0           0           0
           0           0           0           0           0           0
           0           0           0           0           0           0
           0           0           0           0           0           0
           0           0           0           0
ECP-LMax                                   I   N=           4
           0           0           0           0
ECP-LPSkip                                 I   N=           4
           1           1           1           1
ECP-RNFroz                                 R   N=           4
  0.00000000E+00  0.00000000E+00  0.00000000E+00  0.00000000E+00
ECP-NLP                                    I                0
ECP-CLP1                                   R      0.000000000000000E+00
ECP-CLP2                                   R      0.000000000000000E+00
ECP-ZLP                                    R      0.000000000000000E+00
MxBond                                     I                3
NBond                                      I   N=           4
           3           1           1           1
IBond                                      I   N=          12
           2           3           4           1           0           0
           1           0           0           1           0           0
RBond                                      R   N=          12
  1.00000000E+00  1.00000000E+00  1.00000000E+00  1.00000000E+00  0.00000000E+00
  0.00000000E+00  1.00000000E+00  0.00000000E+00  0.00000000E+00  1.00000000E+00
  0.00000000E+00  0.00000000E+00
Virial Ratio                               R      2.002919819799319E+00
SCF Energy                                 R     -3.374372673687431E+02
Total Energy                               R     -3.374372673687431E+02
RMS Density                                R      4.877812420767913E-09
Job Status                                 I                1
Nuclear derivative order                   I                0
External E-field                           R   N=          35
  0.00000000E+00  0.00000000E+00  0.00000000E+00  0.00000000E+00  0.00000000E+00
  0.00000000E+00  0.00000000E+00  0.00000000E+00  0.00000000E+00  0.00000000E+00
  0.00000000E+00  0.00000000E+00  0.00000000E+00  0.00000000E+00  0.00000000E+00
  0.00000000E+00  0.00000000E+00  0.00000000E+00  0.00000000E+00  0.00000000E+00
  0.00000000E+00  0.00000000E+00  0.00000000E+00  0.00000000E+00  0.00000000E+00
  0.00000000E+00  0.00000000E+00  0.00000000E+00  0.00000000E+00  0.00000000E+00
  0.00000000E+00  0.00000000E+00  0.00000000E+00  0.00000000E+00  0.00000000E+00
IOpCl                                      I                0
IROHF                                      I                0
Alpha Orbital Energies                     R   N=         124
 -2.45206670E+01 -2.45206629E+01 -2.45206629E+01 -1.01313870E+01 -1.03692481E+00
 -9.59257569E-01 -9.59257569E-01 -4.35934789E-01 -3.06644174E-01 -3.06644174E-01
 -2.64880233E-01 -2.13040662E-01 -2.13040662E-01 -1.69396304E-01 -1.69396304E-01
 -1.56568032E-01  5.22785872E-03  3.39451555E-01  3.39451555E-01  3.73588795E-01
  4.08579864E-01  4.92972463E-01  4.96582060E-01  4.96582060E-01  7.09413726E-01
  7.09413726E-01  7.72979416E-01  7.76792548E-01  7.76792548E-01  8.19088137E-01
  9.18856394E-01  9.47518219E-01  9.47518219E-01  1.09618025E+00  1.10061084E+00
  1.10061084E+00  1.12518206E+00  1.12518206E+00  1.19826976E+00  1.29510225E+00
  1.29510225E+00  1.58759339E+00  1.93306914E+00  1.98515464E+00  1.98515464E+00
  2.07924057E+00  2.12533348E+00  2.17261076E+00  2.17261076E+00  2.25118928E+00
  2.25118928E+00  2.39668618E+00  2.46458461E+00  2.46458461E+00  2.54457999E+00
  2.54457999E+00  2.78817832E+00  2.79594681E+00  2.79594681E+00  2.84315261E+00
  3.14832139E+00  3.17751583E+00  3.17751583E+00  3.25323179E+00  3.33981685E+00
  3.33981685E+00  3.34350643E+00  3.39017707E+00  3.39017707E+00  3.53314160E+00
  3.53314160E+00  3.54941434E+00  3.82650651E+00  3.87251183E+00  3.87251183E+00
  3.93118264E+00  3.98483556E+00  3.98483556E+00  4.12003984E+00  4.12003984E+00
  4.15754977E+00  5.28918608E+00  5.29414753E+00  5.29414753E+00  7.09637571E+00
  7.11385571E+00  7.11385571E+00  7.12708982E+00  7.12762182E+00  7.12762182E+00
  7.13045477E+00  7.13045477E+00  7.13269633E+00  7.17567950E+00  7.17567950E+00
  7.20670600E+00  7.27316710E+00  7.27316710E+00  7.29992914E+00  7.48925601E+00
  7.49862581E+00  7.49862581E+00  7.50164829E+00  7.68050122E+00  7.68050122E+00
  8.54629456E+00  8.54629456E+00  8.59611502E+00  8.60226214E+00  8.64902321E+00
  8.64902321E+00  8.86777443E+00  8.89505701E+00  8.89505701E+00  9.08806183E+00
  9.13691766E+00  9.13691766E+00  9.20020849E+00  9.30358527E+00  9.30358527E+00
  2.21526692E+01  5.71751079E+01  5.71751079E+01  5.74470457E+01
Alpha MO coefficients                      R   N=       15376
  4.96341301E-05 -2.10813099E-04 -1.27344421E-03  3.77477793E-03 -5.38607871E-03
  0.00000000E+00 -1.41135968E-12  2.15477464E-05  0.00000000E+00  1.92356011E-11
 -1.34596608E-03  0.00000000E+00 -9.62855171E-12  2.38551106E-03 -1.43551887E-04
  0.00000000E+00 -3.22407219E-12 -3.53854220E-12  0.00000000E+00 -2.61971592E-04
  0.00000000E+00 -1.17320607E-11 -7.90527202E-12  0.00000000E+00  5.39144872E-04
  0.00000000E+00  7.98156664E-13  5.48034012E-12  0.00000000E+00  0.00000000E+00
 -6.21406252E-04  2.45718877E-01  3.74705381E-01  1.87986072E-02 -1.09702752E-02
  5.42024519E-03  0.00000000E+00 -5.51711429E-04  2.18490819E-04  0.00000000E+00
  1.10999527E-03 -3.98113312E-04  0.00000000E+00 -5.04400258E-04 -6.94244302E-05
 -4.29727664E-05  0.00000000E+00 -6.44979819E-05 -7.25221281E-05  0.00000000E+00
  1.43164000E-04  0.00000000E+00  2.64777592E-04  2.81504369E-04  0.00000000E+00
  2.15814272E-05  0.00000000E+00  3.50869040E-06  4.64378533E-05  0.00000000E+00
  0.00000000E+00 -1.70324441E-05  2.45718872E-01  3.74705373E-01  1.87986068E-02
 -1.09702750E-02  5.42024512E-03 -4.77796103E-04  2.75855709E-04  2.18490814E-04
  9.61284085E-04 -5.54997627E-04 -3.98113301E-04 -4.36823428E-04  2.52200122E-04
 -6.94244345E-05 -4.29727663E-05 -5.58568898E-05  3.22489901E-05  3.62610629E-05
 -6.28060047E-05  1.43163999E-04  2.29304117E-04 -1.32388793E-04 -1.40752180E-04
  2.43789932E-04  2.15814266E-05  3.03861518E-06 -1.75434503E-06 -2.32189265E-05
  4.02163598E-05 -1.90152274E-13 -1.70324433E-05  2.45718872E-01  3.74705373E-01
  1.87986068E-02 -1.09702750E-02  5.42024512E-03  4.77796103E-04  2.75855709E-04
  2.18490814E-04 -9.61284085E-04 -5.54997627E-04 -3.98113301E-04  4.36823428E-04
  2.52200122E-04 -6.94244345E-05 -4.29727663E-05  5.58568898E-05  3.22489901E-05
  3.62610629E-05  6.28060047E-05  1.43163999E-04 -2.29304117E-04 -1.32388793E-04
 -1.40752180E-04 -2.43789932E-04  2.15814266E-05 -3.03861518E-06 -1.75434503E-06
 -2.32189265E-05 -4.02163598E-05  1.90152274E-13 -1.70324433E-05  0.00000000E+00
  0.00000000E+00  0.00000000E+00  0.00000000E+00  0.00000000E+00 -1.49548362E-04
  0.00000000E+00  0.00000000E+00  2.03552693E-03  0.00000000E+00  0.00000000E+00
 -1.01802634E-03  0.00000000E+00  0.00000000E+00  0.00000000E+00 -3.40933402E-04
  0.00000000E+00  0.00000000E+00 -3.74248859E-04  0.00000000E+00 -1.24142388E-03
  0.00000000E+00  0.00000000E+00 -8.36366679E-04  0.00000000E+00  8.46010613E-05
  0.00000000E+00  0.00000000E+00  5.79772845E-04  1.32258414E-15  0.00000000E+00
  0.00000000E+00  0.00000000E+00  0.00000000E+00  0.00000000E+00  0.00000000E+00
  5.44685567E-05  0.00000000E+00  0.00000000E+00 -1.45369302E-04  0.00000000E+00
  0.00000000E+00 -1.45321354E-04  0.00000000E+00  0.00000000E+00  0.00000000E+00
 -3.29731876E-05  0.00000000E+00  0.00000000E+00 -8.90649916E-05  0.00000000E+00
  1.10615564E-04  0.00000000E+00  0.00000000E+00  2.88087810E-04  0.00000000E+00
  2.78976643E-05  0.00000000E+00  0.00000000E+00 -3.26163569E-05  2.35164716E-05
  0.00000000E+00  3.00935207E-01  4.58975780E-01  2.26052082E-02 -1.26239914E-02
  4.47909866E-03 -5.49819290E-04  3.48885751E-04  3.21351681E-04  1.16121801E-03
 -7.54358536E-04 -6.89929523E-04 -6.08641954E-04  2.67498273E-04  2.60364355E-04
 -7.57860694E-06 -7.72703090E-05  2.55749550E-05 -5.53882745E-06 -7.94714611E-05
  3.94202254E-05  2.78298665E-04 -9.68118833E-05 -4.08399801E-06  2.95161502E-04
  3.89685814E-05  3.95497068E-06  1.38233206E-05 -4.01996552E-05  3.70114884E-05
 -1.17582358E-05 -5.20237006E-05 -3.00935207E-01 -4.58975780E-01 -2.26052082E-02
  1.26239914E-02 -4.47909866E-03 -5.49819290E-04 -3.48885751E-04 -3.21351681E-04
  1.16121801E-03  7.54358536E-04  6.89929523E-04 -6.08641954E-04 -2.67498273E-04
 -2.60364355E-04  7.57860694E-06 -7.72703090E-05 -2.55749550E-05  5.53882745E-06
 -7.94714611E-05 -3.94202254E-05  2.78298665E-04  9.68118833E-05  4.08399801E-06
  2.95161502E-04 -3.89685814E-05  3.95497068E-06 -1.38233206E-05  4.01996552E-05
  3.70114884E-05 -1.17582358E-05  5.20237006E-05 -4.69202577E-13  1.99475549E-12
  1.20429918E-11 -3.57005236E-11  5.09504003E-11  0.00000000E+00 -1.49548362E-04
 -2.03625294E-13  0.00000000E+00  2.03552693E-03  1.27276375E-11  0.00000000E+00
 -1.01802634E-03 -2.25667215E-11  1.35702028E-12  0.00000000E+00 -3.40933402E-04
 -3.74248859E-04  0.00000000E+00  2.47986834E-12  0.00000000E+00 -1.24142388E-03
 -8.36366679E-04  0.00000000E+00 -5.10050431E-12  0.00000000E+00  8.46010613E-05
  5.79772845E-04  0.00000000E+00  0.00000000E+00  5.87921223E-12  3.47490044E-01
  5.29979577E-01  2.61022460E-02 -1.45769296E-02  5.17201758E-03  0.00000000E+00
 -7.51248567E-04  3.71064957E-04  0.00000000E+00  1.59674710E-03 -7.96661987E-04
  0.00000000E+00 -7.63082149E-04  3.00642861E-04 -8.75102111E-06  0.00000000E+00
 -9.20360155E-05 -7.62736169E-05  0.00000000E+00  4.55185542E-05  0.00000000E+00
  3.34193029E-04  2.97519397E-04  0.00000000E+00  4.49970417E-05  0.00000000E+00
 -4.02592725E-06  6.02207698E-05  0.00000000E+00  0.00000000E+00 -6.00717950E-05
 -1.73745025E-01 -2.64989794E-01 -1.30511232E-02  7.28846495E-03 -2.58600887E-03
  3.48885755E-04 -1.46960728E-04 -1.85532482E-04 -7.54358545E-04  2.90159807E-04
  3.98330999E-04  2.67498277E-04 -2.99761556E-04 -1.50321430E-04  4.37551117E-06
  2.55749555E-05 -4.77388950E-05 -8.58671485E-05 -5.53882685E-06 -2.27592791E-05
 -9.68118854E-05  1.66509933E-04  2.90445709E-04 -4.08400032E-06 -2.24985211E-05
  1.38233206E-05  1.99167665E-05 -9.40707490E-06 -4.01996556E-05 -2.03658618E-05
  3.00358977E-05 -1.73745025E-01 -2.64989794E-01 -1.30511232E-02  7.28846495E-03
 -2.58600887E-03 -3.48885755E-04 -1.46960728E-04 -1.85532482E-04  7.54358545E-04
  2.90159807E-04  3.98330999E-04 -2.67498277E-04 -2.99761556E-04 -1.50321430E-04
  4.37551117E-06 -2.55749555E-05 -4.77388950E-05 -8.58671485E-05  5.53882685E-06
 -2.27592791E-05  9.68118854E-05  1.66509933E-04  2.90445709E-04  4.08400032E-06
 -2.24985211E-05 -1.38233206E-05  1.99167665E-05 -9.40707490E-06  4.01996556E-05
  2.03658618E-05  3.00358977E-05  4.67375495E-01  6.09513397E-01  3.23908288E-02
 -2.22978352E-02  2.07123235E-03  0.00000000E+00 -2.61381860E-15 -4.27877611E-03
  0.00000000E+00  2.34231939E-14  4.30419162E-03  0.00000000E+00  6.72726115E-15
  9.54816849E-04 -2.18133973E-04  0.00000000E+00 -2.55351661E-16 -2.58598661E-16
  0.00000000E+00 -6.37897033E-05  0.00000000E+00 -1.17079533E-14 -9.93373020E-15
  0.00000000E+00  3.45636113E-04  0.00000000E+00  3.46101391E-16  3.75040083E-15
  0.00000000E+00  0.00000000E+00 -5.33580944E-04 -1.33311039E-05 -1.20931870E-04
  8.11163974E-04 -1.40002030E-03  3.77152981E-03  0.00000000E+00 -2.53801015E-04
  2.01538085E-04  0.00000000E+00  3.63268866E-04 -4.35047071E-04  0.00000000E+00
 -1.87212913E-03  7.19634625E-04  4.69366689E-06  0.00000000E+00 -1.49403595E-04
 -8.58967932E-05  0.00000000E+00 -3.77793085E-05  0.00000000E+00  6.81158364E-04
  3.90082807E-04  0.00000000E+00  1.33280798E-04  0.00000000E+00  4.75852015E-05
  2.37392912E-04  0.00000000E+00  0.00000000E+00 -1.53850551E-04 -1.33311039E-05
 -1.20931870E-04  8.11163974E-04 -1.40002030E-03  3.77152981E-03 -2.19798127E-04
  1.26900508E-04  2.01538085E-04  3.14600066E-04 -1.81634433E-04 -4.35047071E-04
 -1.62131138E-03  9.36064564E-04  7.19634625E-04  4.69366689E-06 -1.29387308E-04
  7.47017973E-05  4.29483966E-05 -7.43888050E-05 -3.77793085E-05  5.89900447E-04
 -3.40579182E-04 -1.95041404E-04  3.37821621E-04  1.33280798E-04  4.12099933E-05
 -2.37926007E-05 -1.18696456E-04  2.05588293E-04  3.39761967E-17 -1.53850551E-04
 -1.33311039E-05 -1.20931870E-04  8.11163974E-04 -1.40002030E-03  3.77152981E-03
  2.19798127E-04  1.26900508E-04  2.01538085E-04 -3.14600066E-04 -1.81634433E-04
 -4.35047071E-04  1.62131138E-03  9.36064564E-04  7.19634625E-04  4.69366689E-06
  1.29387308E-04  7.47017973E-05  4.29483966E-05  7.43888050E-05 -3.77793085E-05
 -5.89900447E-04 -3.40579182E-04 -1.95041404E-04 -3.37821621E-04  1.33280798E-04
 -4.12099933E-05 -2.37926007E-05 -1.18696456E-04 -2.05588293E-04 -3.39761967E-17
 -1.53850551E-04 -3.74682385E-02 -7.86192310E-02  1.27187922E-01  1.01562165E-01
  1.33916666E-02  0.00000000E+00  1.12496855E-15 -5.89048848E-02  0.00000000E+00
 -7.74722013E-14 -4.15197696E-02  0.00000000E+00 -2.87504084E-14 -2.27131951E-03
 -1.61280772E-03  0.00000000E+00 -1.88364251E-15  1.99465027E-15  0.00000000E+00
 -5.15741648E-04  0.00000000E+00  3.99304191E-14  1.68885916E-14  0.00000000E+00
  3.68508712E-03  0.00000000E+00 -1.39108562E-15 -4.27899288E-15  0.00000000E+00
  0.00000000E+00 -3.25156164E-03 -5.52118420E-02 -1.34320513E-01  1.87386532E-01
  2.68859203E-01  9.58462724E-02  0.00000000E+00 -3.64634745E-02  1.31777345E-02
  0.00000000E+00 -3.41092011E-02  1.25583534E-02  0.00000000E+00  4.24523179E-04
 -7.13488553E-04 -4.13562003E-04  0.00000000E+00 -9.46120574E-04 -1.07944235E-03
  0.00000000E+00 -2.55851344E-03  0.00000000E+00 -4.54172040E-03 -5.39972151E-03
  0.00000000E+00 -5.92278104E-04  0.00000000E+00  3.17086938E-04 -7.95309989E-04
  0.00000000E+00  0.00000000E+00  7.41516082E-04 -5.52118420E-02 -1.34320513E-01
  1.87386532E-01  2.68859203E-01  9.58462724E-02 -3.15782952E-02  1.82317373E-02
  1.31777345E-02 -2.95394346E-02  1.70546005E-02  1.25583534E-02  3.67647857E-04
 -2.12261589E-04 -7.13488553E-04 -4.13562003E-04 -8.19364452E-04  4.73060287E-04
  5.39721177E-04 -9.34824500E-04 -2.55851344E-03 -3.93324524E-03  2.27086020E-03
  2.69986076E-03 -4.67629600E-03 -5.92278104E-04  2.74605344E-04 -1.58543469E-04
  3.97654995E-04 -6.88758655E-04 -1.88343450E-15  7.41516082E-04 -5.52118420E-02
 -1.34320513E-01  1.87386532E-01  2.68859203E-01  9.58462724E-02  3.15782952E-02
  1.82317373E-02  1.31777345E-02  2.95394346E-02  1.70546005E-02  1.25583534E-02
 -3.67647857E-04 -2.12261589E-04 -7.13488553E-04 -4.13562003E-04  8.19364452E-04
  4.73060287E-04  5.39721177E-04  9.34824500E-04 -2.55851344E-03  3.93324524E-03
  2.27086020E-03  2.69986076E-03  4.67629600E-03 -5.92278104E-04 -2.74605344E-04
 -1.58543469E-04  3.97654995E-04  6.88758655E-04  1.88343450E-15  7.41516082E-04
  0.00000000E+00  0.00000000E+00  0.00000000E+00  0.00000000E+00  0.00000000E+00
  7.72650923E-02  0.00000000E+00  0.00000000E+00  4.58171971E-02  0.00000000E+00
  0.00000000E+00  6.25933344E-03  0.00000000E+00  0.00000000E+00  0.00000000E+00
 -1.16293935E-02  0.00000000E+00  0.00000000E+00 -8.85889455E-03  0.00000000E+00
 -1.30542160E-02  0.00000000E+00  0.00000000E+00 -7.86377530E-03  0.00000000E+00
  8.62412155E-04  0.00000000E+00  0.00000000E+00  3.00332853E-03 -1.87828817E-15