 Entering Gaussian System, Link 0=/home/zhangjx/ssd/softwares/g16/g16
 Input=F-8e.gjf
 Output=F-8e.log
 Initial command:
 /home/zhangjx/ssd/softwares/g16/l1.exe "/home/zhangjx/ssd/scratch/Gau-812911.inp" -scrdir="/home/zhangjx/ssd/scratch/"
 Entering Link 1 = /home/zhangjx/ssd/softwares/g16/l1.exe PID=    812913.
  
 Copyright (c) 1988,1990,1992,1993,1995,1998,2003,2009,2016,
            Gaussian, Inc.  All Rights Reserved.
  
 This is part of the Gaussian(R) 16 program.  It is based on
 the Gaussian(R) 09 system (copyright 2009, Gaussian, Inc.),
 the Gaussian(R) 03 system (copyright 2003, Gaussian, Inc.),
 the Gaussian(R) 98 system (copyright 1998, Gaussian, Inc.),
 the Gaussian(R) 94 system (copyright 1995, Gaussian, Inc.),
 the Gaussian 92(TM) system (copyright 1992, Gaussian, Inc.),
 the Gaussian 90(TM) system (copyright 1990, Gaussian, Inc.),
 the Gaussian 88(TM) system (copyright 1988, Gaussian, Inc.),
 the Gaussian 86(TM) system (copyright 1986, Carnegie Mellon
 University), and the Gaussian 82(TM) system (copyright 1983,
 Carnegie Mellon University). Gaussian is a federally registered
 trademark of Gaussian, Inc.
  
 This software contains proprietary and confidential information,
 including trade secrets, belonging to Gaussian, Inc.
  
 This software is provided under written license and may be
 used, copied, transmitted, or stored only in accord with that
 written license.
  
 The following legend is applicable only to US Government
 contracts under FAR:
  
                    RESTRICTED RIGHTS LEGEND
  
 Use, reproduction and disclosure by the US Government is
 subject to restrictions as set forth in subparagraphs (a)
 and (c) of the Commercial Computer Software - Restricted
 Rights clause in FAR 52.227-19.
  
 Gaussian, Inc.
 340 Quinnipiac St., Bldg. 40, Wallingford CT 06492
  
  
 ---------------------------------------------------------------
 Warning -- This program may not be used in any manner that
 competes with the business of Gaussian, Inc. or will provide
 assistance to any competitor of Gaussian, Inc.  The licensee
 of this program is prohibited from giving any competitor of
 Gaussian, Inc. access to this program.  By using this program,
 the user acknowledges that Gaussian, Inc. is engaged in the
 business of creating and licensing software in the field of
 computational chemistry and represents and warrants to the
 licensee that it is not a competitor of Gaussian, Inc. and that
 it will not use this program in any manner prohibited above.
 ---------------------------------------------------------------
  

 Cite this work as:
 Gaussian 16, Revision A.03,
 M. J. Frisch, G. W. Trucks, H. B. Schlegel, G. E. Scuseria, 
 M. A. Robb, J. R. Cheeseman, G. Scalmani, V. Barone, 
 G. A. Petersson, H. Nakatsuji, X. Li, M. Caricato, A. V. Marenich, 
 J. Bloino, B. G. Janesko, R. Gomperts, B. Mennucci, H. P. Hratchian, 
 J. V. Ortiz, A. F. Izmaylov, J. L. Sonnenberg, D. Williams-Young, 
 F. Ding, F. Lipparini, F. Egidi, J. Goings, B. Peng, A. Petrone, 
 T. Henderson, D. Ranasinghe, V. G. Zakrzewski, J. Gao, N. Rega, 
 G. Zheng, W. Liang, M. Hada, M. Ehara, K. Toyota, R. Fukuda, 
 J. Hasegawa, M. Ishida, T. Nakajima, Y. Honda, O. Kitao, H. Nakai, 
 T. Vreven, K. Throssell, J. A. Montgomery, Jr., J. E. Peralta, 
 F. Ogliaro, M. J. Bearpark, J. J. Heyd, E. N. Brothers, K. N. Kudin, 
 V. N. Staroverov, T. A. Keith, R. Kobayashi, J. Normand, 
 K. Raghavachari, A. P. Rendell, J. C. Burant, S. S. Iyengar, 
 J. Tomasi, M. Cossi, J. M. Millam, M. Klene, C. Adamo, R. Cammi, 
 J. W. Ochterski, R. L. Martin, K. Morokuma, O. Farkas, 
 J. B. Foresman, and D. J. Fox, Gaussian, Inc., Wallingford CT, 2016.
 
 ******************************************
 Gaussian 16:  ES64L-G16RevA.03 25-Dec-2016
                25-Oct-2022 
 ******************************************
 %chk=F-8e.chk
 ----------------------------------------------------------------------
 #p pbe1pbe/def2TZVP gfinput pop=(minimal,nboread) int=ultrafine scf=(d
 symm,symm) symm=pg=Ih
 ----------------------------------------------------------------------
 1/38=1,172=1/1;
 2/12=2,17=6,18=5,19=2314885530818463817,40=1/2;
 3/5=44,7=101,11=2,24=10,25=1,30=1,74=-13,75=-5/1,2,3;
 4/9=4/1;
 5/5=2,15=2,17=200,38=5/2;
 6/7=2,8=2,9=2,10=2,28=1,40=2/1,7;
 99/5=1,9=1/99;
 Leave Link    1 at Tue Oct 25 18:17:47 2022, MaxMem=           0 cpu:               0.0 elap:               0.0
 (Enter /home/zhangjx/ssd/softwares/g16/l101.exe)
 ----
 F-8e
 ----
 Symbolic Z-matrix:
 Charge = -1 Multiplicity = 1
 F
 
 ITRead=  0
 MicOpt= -1
 NAtoms=      1 NQM=        1 NQMF=       0 NMMI=      0 NMMIF=      0
                NMic=       0 NMicF=      0.
                    Isotopes and Nuclear Properties:
 (Nuclear quadrupole moments (NQMom) in fm**2, nuclear magnetic moments (NMagM)
  in nuclear magnetons)

  Atom         1
 IAtWgt=          19
 AtmWgt=  18.9984032
 NucSpn=           1
 AtZEff=  -0.0000000
 NQMom=    0.0000000
 NMagM=    2.6288670
 AtZNuc=   9.0000000
 Leave Link  101 at Tue Oct 25 18:17:47 2022, MaxMem=   104857600 cpu:               0.1 elap:               0.1
 (Enter /home/zhangjx/ssd/softwares/g16/l202.exe)
                          Input orientation:                          
 ---------------------------------------------------------------------
 Center     Atomic      Atomic             Coordinates (Angstroms)
 Number     Number       Type             X           Y           Z
 ---------------------------------------------------------------------
      1          9           0        0.000000    0.000000    0.000000
 ---------------------------------------------------------------------
 Symm:  InNGrp=IH   InAxis=0 RotPrA=F RotCs=T.
 Stoichiometry    F(1-)
 Framework group  IH[O(F)]
 Deg. of freedom     0
 Full point group                 IH      NOp 120
 Largest Abelian subgroup         C2H     NOp   4
 Largest concise Abelian subgroup C1      NOp   1
                         Standard orientation:                         
 ---------------------------------------------------------------------
 Center     Atomic      Atomic             Coordinates (Angstroms)
 Number     Number       Type             X           Y           Z
 ---------------------------------------------------------------------
      1          9           0        0.000000    0.000000    0.000000
 ---------------------------------------------------------------------
 Leave Link  202 at Tue Oct 25 18:17:47 2022, MaxMem=   104857600 cpu:               0.0 elap:               0.0
 (Enter /home/zhangjx/ssd/softwares/g16/l301.exe)
 Standard basis: def2TZVP (5D, 7F)
 Ernie: Thresh=  0.10000D-02 Tol=  0.10000D-05 Strict=F.
 AO basis set in the form of general basis input (Overlap normalization):
      1 0
 S   6 1.00       0.000000000000
      0.3547910044D+05  0.5618499111D-03
      0.5318472898D+04  0.4355197381D-02
      0.1210481098D+04  0.2261824715D-01
      0.3428551814D+03  0.9140305514D-01
      0.1120194318D+03  0.2911687069D+00
      0.4071474025D+02  0.6777270856D+00
 S   2 1.00       0.000000000000
      0.1603967811D+02  0.6329641788D+00
      0.6503818674D+01  0.4013647573D+00
 S   1 1.00       0.000000000000
      0.1544047751D+01  0.1000000000D+01
 S   1 1.00       0.000000000000
      0.6122345286D+00  0.1000000000D+01
 S   1 1.00       0.000000000000
      0.2402797970D+00  0.1000000000D+01
 P   4 1.00       0.000000000000
      0.8023390048D+02  0.1232134514D-01
      0.1859401074D+02  0.8571339535D-01
      0.5686790265D+01  0.3263310550D+00
      0.1951100629D+01  0.6997111464D+00
 P   1 1.00       0.000000000000
      0.6697021130D+00  0.1000000000D+01
 P   1 1.00       0.000000000000
      0.2165130041D+00  0.1000000000D+01
 D   1 1.00       0.000000000000
      0.3107000000D+01  0.1000000000D+01
 D   1 1.00       0.000000000000
      0.8550000000D+00  0.1000000000D+01
 F   1 1.00       0.000000000000
      0.1917000000D+01  0.1000000000D+01
 ****

 There are    13 symmetry adapted cartesian basis functions of AG  symmetry.
 There are     4 symmetry adapted cartesian basis functions of BG  symmetry.
 There are     7 symmetry adapted cartesian basis functions of AU  symmetry.
 There are    12 symmetry adapted cartesian basis functions of BU  symmetry.
 There are    11 symmetry adapted basis functions of AG  symmetry.
 There are     4 symmetry adapted basis functions of BG  symmetry.
 There are     6 symmetry adapted basis functions of AU  symmetry.
 There are    10 symmetry adapted basis functions of BU  symmetry.
    31 basis functions,    51 primitive gaussians,    36 cartesian basis functions
     5 alpha electrons        5 beta electrons
       nuclear repulsion energy         0.0000000000 Hartrees.
 IExCor= 1009 DFT=T Ex+Corr=PBE1PBE ExCW=0 ScaHFX=  0.250000
 ScaDFX=  0.750000  0.750000  1.000000  1.000000 ScalE2=  1.000000  1.000000
 IRadAn=      5 IRanWt=     -1 IRanGd=            0 ICorTp=0 IEmpDi=  4
 NAtoms=    1 NActive=    1 NUniq=    1 SFac= 1.00D+00 NAtFMM=   60 NAOKFM=F Big=F
 Integral buffers will be    131072 words long.
 Raffenetti 2 integral format.
 Two-electron integral symmetry is turned on.
 Leave Link  301 at Tue Oct 25 18:17:47 2022, MaxMem=   104857600 cpu:               0.0 elap:               0.0
 (Enter /home/zhangjx/ssd/softwares/g16/l302.exe)
 NPDir=0 NMtPBC=     1 NCelOv=     1 NCel=       1 NClECP=     1 NCelD=      1
         NCelK=      1 NCelE2=     1 NClLst=     1 CellRange=     0.0.
 One-electron integrals computed using PRISM.
 One-electron integral symmetry used in STVInt
 120 Symmetry operations used in ECPInt.
 ECPInt:  NShTT=      66 NPrTT=     232 LenC2=      67 LenP2D=     232.
 LDataN:  DoStor=T MaxTD1= 6 Len=  172
 NBasis=    31 RedAO= T EigKep=  3.09D-02  NBF=    11     4     6    10
 NBsUse=    31 1.00D-06 EigRej= -1.00D+00 NBFU=    11     4     6    10
 Precomputing XC quadrature grid using
 IXCGrd= 4 IRadAn=           5 IRanWt=          -1 IRanGd=           0 AccXCQ= 0.00D+00.
 Generated NRdTot=       0 NPtTot=           0 NUsed=           0 NTot=          32
 NSgBfM=    36    36    36    36    36 MxSgAt=     1 MxSgA2=     1.
 Leave Link  302 at Tue Oct 25 18:17:47 2022, MaxMem=   104857600 cpu:               0.1 elap:               0.1
 (Enter /home/zhangjx/ssd/softwares/g16/l303.exe)
 DipDrv:  MaxL=1.
 Leave Link  303 at Tue Oct 25 18:17:47 2022, MaxMem=   104857600 cpu:               0.0 elap:               0.0
 (Enter /home/zhangjx/ssd/softwares/g16/l401.exe)
 ExpMin= 2.17D-01 ExpMax= 3.55D+04 ExpMxC= 1.21D+03 IAcc=3 IRadAn=         5 AccDes= 0.00D+00
 Harris functional with IExCor= 1009 and IRadAn=       5 diagonalized for initial guess.
 HarFok:  IExCor= 1009 AccDes= 0.00D+00 IRadAn=         5 IDoV= 1 UseB2=F ITyADJ=14
 ICtDFT=  3500011 ScaDFX=  1.000000  1.000000  1.000000  1.000000
 FoFCou: FMM=F IPFlag=           0 FMFlag=      100000 FMFlg1=           0
         NFxFlg=           0 DoJE=T BraDBF=F KetDBF=T FulRan=T
         wScrn=  0.000000 ICntrl=       500 IOpCl=  0 I1Cent=   200000004 NGrid=           0
         NMat0=    1 NMatS0=      1 NMatT0=    0 NMatD0=    1 NMtDS0=    0 NMtDT0=    0
 Petite list used in FoFCou.
 Harris En= -100.024874996856    
 JPrj=0 DoOrth=F DoCkMO=F.
 Initial guess orbital symmetries:
       Occupied  (AG) (AG) (T1U) (T1U) (T1U)
       Virtual   (AG) (T1U) (T1U) (T1U) (HG) (HG) (HG) (HG) (HG)
                 (T1U) (T1U) (T1U) (AG) (GU) (GU) (GU) (GU) (T2U)
                 (T2U) (T2U) (HG) (HG) (HG) (HG) (HG) (AG)
 The electronic state of the initial guess is 1-AG.
 Leave Link  401 at Tue Oct 25 18:17:48 2022, MaxMem=   104857600 cpu:               0.1 elap:               0.1
 (Enter /home/zhangjx/ssd/softwares/g16/l502.exe)
 Keep R1 ints in memory in symmetry-blocked form, NReq=2075543.
 FoFCou: FMM=F IPFlag=           0 FMFlag=           0 FMFlg1=           0
         NFxFlg=           0 DoJE=F BraDBF=F KetDBF=F FulRan=T
         wScrn=  0.000000 ICntrl=       600 IOpCl=  0 I1Cent=           0 NGrid=           0
         NMat0=    1 NMatS0=    496 NMatT0=    0 NMatD0=    1 NMtDS0=    0 NMtDT0=    0
 Petite list used in FoFCou.
 Closed shell SCF:
 Using DIIS extrapolation, IDIIS=  1040.
 NGot=   104857600 LenX=   104818934 LenY=   104817197
 Requested convergence on RMS density matrix=1.00D-08 within 128 cycles.
 Requested convergence on MAX density matrix=1.00D-06.
 Requested convergence on             energy=1.00D-06.
 No special actions if energy rises.
 Integral accuracy reduced to 1.0D-05 until final iterations.

 Cycle   1  Pass 0  IDiag  1:
 E= -99.6610319623334    
 DIIS: error= 1.04D-01 at cycle   1 NSaved=   1.
 NSaved= 1 IEnMin= 1 EnMin= -99.6610319623334     IErMin= 1 ErrMin= 1.04D-01
 ErrMax= 1.04D-01  0.00D+00 EMaxC= 1.00D-01 BMatC= 1.63D-01 BMatP= 1.63D-01
 IDIUse=3 WtCom= 0.00D+00 WtEn= 1.00D+00
 Coeff-Com:  0.100D+01
 Coeff-En:   0.100D+01
 Coeff:      0.100D+01
 Gap=     0.647 Goal=   None    Shift=    0.000
 GapD=    0.647 DampG=2.000 DampE=0.250 DampFc=0.5000 IDamp=-1.
 Damping current iteration by 5.00D-01
 RMSDP=1.75D-02 MaxDP=1.96D-01              OVMax= 2.21D-01

 Cycle   2  Pass 0  IDiag  1:
 E= -99.6886489289387     Delta-E=       -0.027616966605 Rises=F Damp=T
 DIIS: error= 3.39D-02 at cycle   2 NSaved=   2.
 NSaved= 2 IEnMin= 2 EnMin= -99.6886489289387     IErMin= 2 ErrMin= 3.39D-02
 ErrMax= 3.39D-02  0.00D+00 EMaxC= 1.00D-01 BMatC= 2.14D-02 BMatP= 1.63D-01
 IDIUse=3 WtCom= 6.61D-01 WtEn= 3.39D-01
 Coeff-Com:  0.259D+00 0.741D+00
 Coeff-En:   0.375D+00 0.625D+00
 Coeff:      0.298D+00 0.702D+00
 Gap=     0.786 Goal=   None    Shift=    0.000
 RMSDP=1.65D-03 MaxDP=2.05D-02 DE=-2.76D-02 OVMax= 1.22D-01

 Cycle   3  Pass 0  IDiag  1:
 E= -99.7725783700153     Delta-E=       -0.083929441077 Rises=F Damp=F
 DIIS: error= 1.15D-02 at cycle   3 NSaved=   3.
 NSaved= 3 IEnMin= 3 EnMin= -99.7725783700153     IErMin= 3 ErrMin= 1.15D-02
 ErrMax= 1.15D-02  0.00D+00 EMaxC= 1.00D-01 BMatC= 2.22D-03 BMatP= 2.14D-02
 IDIUse=3 WtCom= 8.85D-01 WtEn= 1.15D-01
 Coeff-Com:  0.746D-01-0.145D+00 0.107D+01
 Coeff-En:   0.000D+00 0.000D+00 0.100D+01
 Coeff:      0.661D-01-0.128D+00 0.106D+01
 Gap=     0.814 Goal=   None    Shift=    0.000
 RMSDP=6.55D-04 MaxDP=6.99D-03 DE=-8.39D-02 OVMax= 8.83D-03

 Cycle   4  Pass 0  IDiag  1:
 E= -99.7737549656797     Delta-E=       -0.001176595664 Rises=F Damp=F
 DIIS: error= 8.36D-04 at cycle   4 NSaved=   4.
 NSaved= 4 IEnMin= 4 EnMin= -99.7737549656797     IErMin= 4 ErrMin= 8.36D-04
 ErrMax= 8.36D-04  0.00D+00 EMaxC= 1.00D-01 BMatC= 1.26D-05 BMatP= 2.22D-03
 IDIUse=3 WtCom= 9.92D-01 WtEn= 8.36D-03
 Coeff-Com: -0.327D-02 0.175D-01-0.671D-02 0.992D+00
 Coeff-En:   0.000D+00 0.000D+00 0.000D+00 0.100D+01
 Coeff:     -0.325D-02 0.174D-01-0.666D-02 0.993D+00
 Gap=     0.814 Goal=   None    Shift=    0.000
 RMSDP=3.34D-05 MaxDP=3.32D-04 DE=-1.18D-03 OVMax= 4.77D-04

 Cycle   5  Pass 0  IDiag  1:
 E= -99.7737607968114     Delta-E=       -0.000005831132 Rises=F Damp=F
 DIIS: error= 1.18D-04 at cycle   5 NSaved=   5.
 NSaved= 5 IEnMin= 5 EnMin= -99.7737607968114     IErMin= 5 ErrMin= 1.18D-04
 ErrMax= 1.18D-04  0.00D+00 EMaxC= 1.00D-01 BMatC= 2.11D-07 BMatP= 1.26D-05
 IDIUse=3 WtCom= 9.99D-01 WtEn= 1.18D-03
 Coeff-Com: -0.117D-02 0.174D-02-0.821D-03 0.721D-01 0.928D+00
 Coeff-En:   0.000D+00 0.000D+00 0.000D+00 0.000D+00 0.100D+01
 Coeff:     -0.117D-02 0.174D-02-0.820D-03 0.720D-01 0.928D+00
 Gap=     0.814 Goal=   None    Shift=    0.000
 RMSDP=6.83D-06 MaxDP=7.36D-05 DE=-5.83D-06 OVMax= 8.57D-05

 Initial convergence to 1.0D-05 achieved.  Increase integral accuracy.
 Cycle   6  Pass 1  IDiag  1:
 E= -99.7737609281022     Delta-E=       -0.000000131291 Rises=F Damp=F
 DIIS: error= 1.20D-05 at cycle   1 NSaved=   1.
 NSaved= 1 IEnMin= 1 EnMin= -99.7737609281022     IErMin= 1 ErrMin= 1.20D-05
 ErrMax= 1.20D-05  0.00D+00 EMaxC= 1.00D-01 BMatC= 2.22D-09 BMatP= 2.22D-09
 IDIUse=1 WtCom= 1.00D+00 WtEn= 0.00D+00
 Coeff-Com:  0.100D+01
 Coeff:      0.100D+01
 Gap=     0.814 Goal=   None    Shift=    0.000
 RMSDP=6.83D-06 MaxDP=7.36D-05 DE=-1.31D-07 OVMax= 2.26D-05

 Cycle   7  Pass 1  IDiag  1:
 E= -99.7737609264977     Delta-E=        0.000000001605 Rises=F Damp=F
 DIIS: error= 1.81D-05 at cycle   2 NSaved=   2.
 NSaved= 2 IEnMin= 1 EnMin= -99.7737609281022     IErMin= 1 ErrMin= 1.20D-05
 ErrMax= 1.81D-05  0.00D+00 EMaxC= 1.00D-01 BMatC= 5.41D-09 BMatP= 2.22D-09
 IDIUse=1 WtCom= 1.00D+00 WtEn= 0.00D+00
 Coeff-Com:  0.610D+00 0.390D+00
 Coeff:      0.610D+00 0.390D+00
 Gap=     0.814 Goal=   None    Shift=    0.000
 RMSDP=9.64D-07 MaxDP=1.03D-05 DE= 1.60D-09 OVMax= 1.29D-05

 Cycle   8  Pass 1  IDiag  1:
 E= -99.7737609294307     Delta-E=       -0.000000002933 Rises=F Damp=F
 DIIS: error= 4.99D-07 at cycle   3 NSaved=   3.
 NSaved= 3 IEnMin= 3 EnMin= -99.7737609294307     IErMin= 3 ErrMin= 4.99D-07
 ErrMax= 4.99D-07  0.00D+00 EMaxC= 1.00D-01 BMatC= 4.00D-12 BMatP= 2.22D-09
 IDIUse=1 WtCom= 1.00D+00 WtEn= 0.00D+00
 Coeff-Com:  0.453D-01 0.325D-02 0.951D+00
 Coeff:      0.453D-01 0.325D-02 0.951D+00
 Gap=     0.814 Goal=   None    Shift=    0.000
 RMSDP=2.85D-08 MaxDP=3.04D-07 DE=-2.93D-09 OVMax= 3.67D-07

 Cycle   9  Pass 1  IDiag  1:
 E= -99.7737609294329     Delta-E=       -0.000000000002 Rises=F Damp=F
 DIIS: error= 1.41D-08 at cycle   4 NSaved=   4.
 NSaved= 4 IEnMin= 4 EnMin= -99.7737609294329     IErMin= 4 ErrMin= 1.41D-08
 ErrMax= 1.41D-08  0.00D+00 EMaxC= 1.00D-01 BMatC= 3.40D-15 BMatP= 4.00D-12
 IDIUse=1 WtCom= 1.00D+00 WtEn= 0.00D+00
 Coeff-Com: -0.142D-03-0.274D-03-0.231D-01 0.102D+01
 Coeff:     -0.142D-03-0.274D-03-0.231D-01 0.102D+01
 Gap=     0.814 Goal=   None    Shift=    0.000
 RMSDP=8.53D-10 MaxDP=8.51D-09 DE=-2.22D-12 OVMax= 1.03D-08

 SCF Done:  E(RPBE1PBE) =  -99.7737609294     A.U. after    9 cycles
            NFock=  9  Conv=0.85D-09     -V/T= 2.0013
 KE= 9.964569771426D+01 PE=-2.438817078873D+02 EE= 4.446224924357D+01
 Leave Link  502 at Tue Oct 25 18:17:48 2022, MaxMem=   104857600 cpu:               0.3 elap:               0.3
 (Enter /home/zhangjx/ssd/softwares/g16/l601.exe)
 Copying SCF densities to generalized density rwf, IOpCl= 0 IROHF=0.

 **********************************************************************

            Population analysis using the SCF density.

 **********************************************************************

 Orbital symmetries:
       Occupied  (AG) (AG) (T1U) (T1U) (T1U)
       Virtual   (AG) (T1U) (T1U) (T1U) (HG) (HG) (HG) (HG) (HG)
                 (T1U) (T1U) (T1U) (AG) (GU) (GU) (GU) (GU) (T2U)
                 (T2U) (T2U) (HG) (HG) (HG) (HG) (HG) (AG)
 The electronic state is 1-AG.
 Alpha  occ. eigenvalues --  -24.25240  -0.67657   0.04723   0.04723   0.04723
 Alpha virt. eigenvalues --    0.86081   0.90972   0.90972   0.90972   2.42345
 Alpha virt. eigenvalues --    2.42345   2.42345   2.42345   2.42345   3.62238
 Alpha virt. eigenvalues --    3.62238   3.62238   3.91745   7.37341   7.37341
 Alpha virt. eigenvalues --    7.37341   7.37341   7.37341   7.37341   7.37341
 Alpha virt. eigenvalues --    8.76350   8.76350   8.76350   8.76350   8.76350
 Alpha virt. eigenvalues --   56.78984
          Condensed to atoms (all electrons):
               1
     1  F   10.000000
 Mulliken charges:
               1
     1  F   -1.000000
 Sum of Mulliken charges =  -1.00000
 Mulliken charges with hydrogens summed into heavy atoms:
               1
     1  F   -1.000000
 Electronic spatial extent (au):  <R**2>=             14.8267
 Charge=             -1.0000 electrons
 Dipole moment (field-independent basis, Debye):
    X=              0.0000    Y=              0.0000    Z=              0.0000  Tot=              0.0000
 Quadrupole moment (field-independent basis, Debye-Ang):
   XX=             -6.6475   YY=             -6.6475   ZZ=             -6.6475
   XY=             -0.0000   XZ=             -0.0000   YZ=             -0.0000
 Traceless Quadrupole moment (field-independent basis, Debye-Ang):
   XX=              0.0000   YY=              0.0000   ZZ=              0.0000
   XY=             -0.0000   XZ=             -0.0000   YZ=             -0.0000
 Octapole moment (field-independent basis, Debye-Ang**2):
  XXX=              0.0000  YYY=              0.0000  ZZZ=              0.0000  XYY=              0.0000
  XXY=              0.0000  XXZ=              0.0000  XZZ=              0.0000  YZZ=              0.0000
  YYZ=              0.0000  XYZ=              0.0000
 Hexadecapole moment (field-independent basis, Debye-Ang**3):
 XXXX=             -5.1193 YYYY=             -5.1193 ZZZZ=             -5.1193 XXXY=              0.0000
 XXXZ=             -0.0000 YYYX=              0.0000 YYYZ=             -0.0000 ZZZX=             -0.0000
 ZZZY=             -0.0000 XXYY=             -1.7064 XXZZ=             -1.7064 YYZZ=             -1.7064
 XXYZ=             -0.0000 YYXZ=             -0.0000 ZZXY=              0.0000
 N-N= 0.000000000000D+00 E-N=-2.438817082544D+02  KE= 9.964569771426D+01
 Symmetry AG   KE= 8.216426115929D+01
 Symmetry BG   KE= 3.476902867241D-30
 Symmetry AU   KE= 5.827145518323D+00
 Symmetry BU   KE= 1.165429103665D+01
 No NMR shielding tensors so no spin-rotation constants.
 Leave Link  601 at Tue Oct 25 18:17:48 2022, MaxMem=   104857600 cpu:               0.1 elap:               0.1
 (Enter /home/zhangjx/ssd/softwares/g16/l607.exe)
 ******************************Gaussian NBO Version 3.1******************************
             N A T U R A L   A T O M I C   O R B I T A L   A N D
          N A T U R A L   B O N D   O R B I T A L   A N A L Y S I S
 ******************************Gaussian NBO Version 3.1******************************

       /RESON  / : Allow strongly delocalized NBO set
       /SKIPBO / : Skip NBO transformation step
       /ARCHIVE/ : Write the archive file to LFN 47
       /BNDIDX / : Print bond indices based on the NAO density matrix
       /FILE   / : Set to F-8E                                                

 Analyzing the SCF density

 Job title: F-8e                                                            

 Storage needed:      3127 in NPA ( 104857591 available)
 GSVD:  LWork=        -599 too small for GESVD, short by        3485 words or        3485 for optimal perf.


 NATURAL POPULATIONS:  Natural atomic orbital occupancies 
                                                          
   NAO  Atom  No  lang   Type(AO)    Occupancy      Energy
 ----------------------------------------------------------
     1    F    1  S      Cor( 1S)     2.00000     -16.04633
     2    F    1  S      Val( 2S)     2.00000      -8.88263
     3    F    1  S      Ryd( 4S)     0.00000      15.59849
     4    F    1  S      Ryd( 5S)     0.00000      38.81696
     5    F    1  S      Ryd( 3S)     0.00000       7.15265
     6    F    1  px     Val( 2p)     2.00000       0.04723
     7    F    1  px     Ryd( 4p)     0.00000       3.31571
     8    F    1  px     Ryd( 3p)     0.00000       1.21639
     9    F    1  py     Val( 2p)     2.00000       0.04723
    10    F    1  py     Ryd( 4p)     0.00000       3.31571
    11    F    1  py     Ryd( 3p)     0.00000       1.21639
    12    F    1  pz     Val( 2p)     2.00000       0.04723
    13    F    1  pz     Ryd( 4p)     0.00000       3.31571
    14    F    1  pz     Ryd( 3p)     0.00000       1.21639
    15    F    1  dxy    Ryd( 3d)     0.00000       2.49803
    16    F    1  dxy    Ryd( 4d)     0.00000       8.68892
    17    F    1  dxz    Ryd( 3d)     0.00000       2.49803
    18    F    1  dxz    Ryd( 4d)     0.00000       8.68892
    19    F    1  dyz    Ryd( 3d)     0.00000       2.49803
    20    F    1  dyz    Ryd( 4d)     0.00000       8.68892
    21    F    1  dx2y2  Ryd( 3d)     0.00000       2.49803
    22    F    1  dx2y2  Ryd( 4d)     0.00000       8.68892
    23    F    1  dz2    Ryd( 3d)     0.00000       2.49803
    24    F    1  dz2    Ryd( 4d)     0.00000       8.68892
    25    F    1  f(0)   Ryd( 4f)     0.00000       7.37341
    26    F    1  f(C1)  Ryd( 4f)     0.00000       7.37341
    27    F    1  f(S1)  Ryd( 4f)     0.00000       7.37341
    28    F    1  f(C2)  Ryd( 4f)     0.00000       7.37341
    29    F    1  f(S2)  Ryd( 4f)     0.00000       7.37341
    30    F    1  f(C3)  Ryd( 4f)     0.00000       7.37341
    31    F    1  f(S3)  Ryd( 4f)     0.00000       7.37341

 WARNING:  Population inversion found on atom  F    1


 Summary of Natural Population Analysis:                  
                                                          
                                       Natural Population 
                Natural  -----------------------------------------------
    Atom  No    Charge         Core      Valence    Rydberg      Total
 -----------------------------------------------------------------------
      F    1   -1.00000      2.00000     8.00000    0.00000    10.00000
 =======================================================================
   * Total *   -1.00000      2.00000     8.00000    0.00000    10.00000

                                 Natural Population      
 --------------------------------------------------------
   Core                       2.00000 (100.0000% of   2)
   Valence                    8.00000 (100.0000% of   8)
   Natural Minimal Basis     10.00000 (100.0000% of  10)
   Natural Rydberg Basis      0.00000 (  0.0000% of  10)
 --------------------------------------------------------

    Atom  No          Natural Electron Configuration
 ----------------------------------------------------------------------------
      F    1      [core]2S( 2.00)2p( 6.00)


 Wiberg bond index matrix in the NAO basis:                                    

     Atom    1
     ---- ------
   1.  F  0.0000


 Wiberg bond index, Totals by atom:                                            

     Atom    1
     ---- ------
   1.  F  0.0000


 Atom-atom overlap-weighted NAO bond order:                                    

     Atom    1
     ---- ------
   1.  F  0.0000


 Atom-atom overlap-weighted NAO bond order, Totals by atom:                    

     Atom    1
     ---- ------
   1.  F  0.0000


 MO bond order:                                                                

     Atom    1
     ---- ------
   1.  F  0.0000


 MO atomic valencies:                                                          

     Atom    1
     ---- ------
   1.  F  0.0000


 NBO analysis skipped by request.
 Leave Link  607 at Tue Oct 25 18:17:48 2022, MaxMem=   104857600 cpu:               0.3 elap:               0.3
 (Enter /home/zhangjx/ssd/softwares/g16/l9999.exe)
 1\1\GINC-LOCALHOST\SP\RPBE1PBE\def2TZVP\F1(1-)\ZHANGJX\25-Oct-2022\0\\
 #p pbe1pbe/def2TZVP gfinput pop=(minimal,nboread) int=ultrafine scf=(d
 symm,symm) symm=pg=Ih\\F-8e\\-1,1\F\\Version=ES64L-G16RevA.03\State=1-
 AG\HF=-99.7737609\RMSD=8.525e-10\Dipole=0.,0.,0.\Quadrupole=0.,0.,0.,0
 .,0.,0.\PG=IH [O(F1)]\\@


 ABOVE ALL I AM AN OPTIMIST FOR NUMBER THEORY,
 AND I HOLD THE HOPE THAT WE MAY NOT BE FAR FROM
 A TIME WHEN IRREFUTABLE ARITHMETIC WILL CELEBRATE
 ITS TRIUMPHS IN PHYSICS AND CHEMISTRY.
   -- HERMANN MINKOWSKI, 1905
 Job cpu time:       0 days  0 hours  0 minutes  1.0 seconds.
 Elapsed time:       0 days  0 hours  0 minutes  0.9 seconds.
 File lengths (MBytes):  RWF=      6 Int=      0 D2E=      0 Chk=      1 Scr=      1
 Normal termination of Gaussian 16 at Tue Oct 25 18:17:48 2022.
